
    -----------------------------------------------------------------------
          Psi4: An Open-Source Ab Initio Electronic Structure Package
                               Psi4 undefined 

                         Git: Rev {master} 91a87a5 


    D. G. A. Smith, L. A. Burns, A. C. Simmonett, R. M. Parrish,
    M. C. Schieber, R. Galvelis, P. Kraus, H. Kruse, R. Di Remigio,
    A. Alenaizan, A. M. James, S. Lehtola, J. P. Misiewicz, M. Scheurer,
    R. A. Shaw, J. B. Schriber, Y. Xie, Z. L. Glick, D. A. Sirianni,
    J. S. O'Brien, J. M. Waldrop, A. Kumar, E. G. Hohenstein,
    B. P. Pritchard, B. R. Brooks, H. F. Schaefer III, A. Yu. Sokolov,
    K. Patkowski, A. E. DePrince III, U. Bozkaya, R. A. King,
    F. A. Evangelista, J. M. Turney, T. D. Crawford, C. D. Sherrill,
    J. Chem. Phys. 152(18) 184108 (2020). https://doi.org/10.1063/5.0006002

                            Additional Code Authors
    E. T. Seidl, C. L. Janssen, E. F. Valeev, M. L. Leininger,
    J. F. Gonthier, R. M. Richard, H. R. McAlexander, M. Saitow, X. Wang,
    P. Verma, and M. H. Lechner

             Previous Authors, Complete List of Code Contributors,
                       and Citations for Specific Modules
    https://github.com/psi4/psi4/blob/master/codemeta.json
    https://github.com/psi4/psi4/graphs/contributors
    http://psicode.org/psi4manual/master/introduction.html#citing-psifour

    -----------------------------------------------------------------------


    Psi4 started on: Saturday, 31 October 2020 03:45PM

    Process ID: 62390
    Host:       rigel.local
    PSIDATADIR: /Users/crawdad/psi4/share/psi4
    Memory:     500.0 MiB
    Threads:    1
    
  ==> Input File <==

--------------------------------------------------------------------------
# PYTHONPATH must include directory above plugin directory.
#     Define either externally or here, then import plugin.
sys.path.insert(0, './..')
import vcd

#molecule {
#0 1
#    O         0.000000000000     0.000000000000    -0.116529192243
#    H        -0.000000000000     1.344767972762     0.924701422022
#    H        -0.000000000000    -1.344767972762     0.924701422022
#no_reorient
#no_com
#units bohr
#symmetry c1
#}

#molecule water{
#O
#H 1 1.1
#H 1 1.1 2 104
#
#symmetry c1
#}

molecule h2o2 {
 O     -0.028962160801    -0.694396279686    -0.049338350190
 O      0.028962160801     0.694396279686    -0.049338350190
 H      0.350498145881    -0.910645626300     0.783035421467
 H     -0.350498145881     0.910645626300     0.783035421467
no_reorient
no_com
symmetry c1
}

set {
  basis 4-31g
  freeze_core false
  dertype none
  e_convergence 13
  r_convergence 13
  r_convergence 13
}

gradient('mp2')
--------------------------------------------------------------------------

Scratch directory: /tmp/
gradient() will perform analytic gradient computation.

*** tstart() called on rigel.local
*** at Sat Oct 31 15:45:30 2020

   => Loading Basis Set <=

    Name: 4-31G
    Role: ORBITAL
    Keyword: BASIS
    atoms 1-2 entry O          line    38 file /Users/crawdad/src/vcd/4-31g.gbs 
    atoms 3-4 entry H          line    17 file /Users/crawdad/src/vcd/4-31g.gbs 


         ---------------------------------------------------------
                                   SCF
               by Justin Turney, Rob Parrish, Andy Simmonett
                          and Daniel G. A. Smith
                              RHF Reference
                        1 Threads,    500 MiB Core
         ---------------------------------------------------------

  ==> Geometry <==

    Molecular point group: c1
    Full point group: C2

    Geometry (in Angstrom), charge = 0, multiplicity = 1:

       Center              X                  Y                   Z               Mass       
    ------------   -----------------  -----------------  -----------------  -----------------
         O           -0.028962160801    -0.694396279686    -0.049338350190    15.994914619570
         O            0.028962160801     0.694396279686    -0.049338350190    15.994914619570
         H            0.350498145881    -0.910645626300     0.783035421467     1.007825032230
         H           -0.350498145881     0.910645626300     0.783035421467     1.007825032230

  Running in c1 symmetry.

  Rotational constants: A =     10.61423  B =      0.97044  C =      0.91566 [cm^-1]
  Rotational constants: A = 318206.57700  B =  29093.19760  C =  27450.82465 [MHz]
  Nuclear repulsion =   38.253968531037714

  Charge       = 0
  Multiplicity = 1
  Electrons    = 18
  Nalpha       = 9
  Nbeta        = 9

  ==> Algorithm <==

  SCF Algorithm Type is PK.
  DIIS enabled.
  MOM disabled.
  Fractional occupation disabled.
  Guess Type is SAD.
  Energy threshold   = 1.00e-13
  Density threshold  = 1.00e-10
  Integral threshold = 0.00e+00

  ==> Primary Basis <==

  Basis Set: 4-31G
    Blend: 4-31G
    Number of shells: 14
    Number of basis function: 22
    Number of Cartesian functions: 22
    Spherical Harmonics?: false
    Max angular momentum: 1

  ==> Integral Setup <==

  Using in-core PK algorithm.
   Calculation information:
      Number of atoms:                   4
      Number of AO shells:              14
      Number of primitives:             32
      Number of atomic orbitals:        22
      Number of basis functions:        22

      Integral cutoff                 1.00e-12
      Number of threads:                 1

  Performing in-core PK
  Using 64262 doubles for integral storage.
  We computed 5462 shell quartets total.
  Whereas there are 5565 unique shell quartets.

  ==> DiskJK: Disk-Based J/K Matrices <==

    J tasked:                  Yes
    K tasked:                  Yes
    wK tasked:                  No
    Memory [MiB]:              375
    Schwarz Cutoff:          1E-12

    OpenMP threads:              1

  Minimum eigenvalue in the overlap matrix is 3.5414833076E-02.
  Reciprocal condition number of the overlap matrix is 9.6648837680E-03.
    Using symmetric orthogonalization.

  ==> Pre-Iterations <==

  SCF Guess: Superposition of Atomic Densities via on-the-fly atomic UHF (no occupation information).

   -------------------------
    Irrep   Nso     Nmo    
   -------------------------
     A         22      22 
   -------------------------
    Total      22      22
   -------------------------

  ==> Iterations <==

                        Total Energy        Delta E     RMS |[F,P]|

   @RHF iter SAD:  -149.98498873568141   -1.49985e+02   0.00000e+00 
   @RHF iter   1:  -150.49185208588753   -5.06863e-01   1.31669e-02 DIIS
   @RHF iter   2:  -150.53727272526993   -4.54206e-02   4.57375e-03 DIIS
   @RHF iter   3:  -150.54125941113716   -3.98669e-03   1.20059e-03 DIIS
   @RHF iter   4:  -150.54171319314202   -4.53782e-04   2.14286e-04 DIIS
   @RHF iter   5:  -150.54173277167723   -1.95785e-05   3.34639e-05 DIIS
   @RHF iter   6:  -150.54173368814867   -9.16471e-07   1.02383e-05 DIIS
   @RHF iter   7:  -150.54173379443517   -1.06287e-07   2.65142e-06 DIIS
   @RHF iter   8:  -150.54173380121324   -6.77807e-09   3.81482e-07 DIIS
   @RHF iter   9:  -150.54173380131968   -1.06439e-10   8.65150e-08 DIIS
   @RHF iter  10:  -150.54173380132607   -6.39488e-12   2.01001e-08 DIIS
   @RHF iter  11:  -150.54173380132636   -2.84217e-13   2.36008e-09 DIIS
   @RHF iter  12:  -150.54173380132622    1.42109e-13   4.00215e-10 DIIS
   @RHF iter  13:  -150.54173380132630   -8.52651e-14   7.31967e-11 DIIS
  Energy and wave function converged.


  ==> Post-Iterations <==

    Orbital Energies [Eh]
    ---------------------

    Doubly Occupied:                                                      

       1A    -20.596294     2A    -20.596216     3A     -1.534359  
       4A     -1.225426     5A     -0.777339     6A     -0.677210  
       7A     -0.609137     8A     -0.541714     9A     -0.471155  

    Virtual:                                                              

      10A      0.186873    11A      0.223427    12A      0.352142  
      13A      1.101344    14A      1.116149    15A      1.183615  
      16A      1.233797    17A      1.320010    18A      1.337075  
      19A      1.409709    20A      1.443333    21A      1.751905  
      22A      2.043600  

    Final Occupation by Irrep:
              A 
    DOCC [     9 ]

  @RHF Final Energy:  -150.54173380132630

   => Energetics <=

    Nuclear Repulsion Energy =             38.2539685310377138
    One-Electron Energy =                -283.5337034474413258
    Two-Electron Energy =                  94.7380011150773385
    Total Energy =                       -150.5417338013262736

Computation Completed


Properties will be evaluated at   0.000000,   0.000000,   0.000000 [a0]

Properties computed using the SCF density matrix

  Nuclear Dipole Moment: [e a0]
     X:     0.0000      Y:     0.0000      Z:     1.4677

  Electronic Dipole Moment: [e a0]
     X:     0.0000      Y:     0.0000      Z:     0.0110

  Dipole Moment: [e a0]
     X:     0.0000      Y:     0.0000      Z:     1.4787     Total:     1.4787

  Dipole Moment: [D]
     X:     0.0000      Y:     0.0000      Z:     3.7584     Total:     3.7584


*** tstop() called on rigel.local at Sat Oct 31 15:45:31 2020
Module time:
	user time   =       0.34 seconds =       0.01 minutes
	system time =       0.00 seconds =       0.00 minutes
	total time  =          1 seconds =       0.02 minutes
Total time:
	user time   =       0.34 seconds =       0.01 minutes
	system time =       0.00 seconds =       0.00 minutes
	total time  =          1 seconds =       0.02 minutes
 MINTS: Wrapper to libmints.
   by Justin Turney

   Calculation information:
      Number of threads:                 1
      Number of atoms:                   4
      Number of AO shells:              14
      Number of SO shells:              14
      Number of primitives:             32
      Number of atomic orbitals:        22
      Number of basis functions:        22

      Number of irreps:                  1
      Integral cutoff                 0.00e+00
      Number of functions per irrep: [  22 ]

 OEINTS: Overlap, kinetic, potential, dipole, and quadrupole integrals
         stored in file 35.

      Computing two-electron integrals...done
      Computed 30837 non-zero two-electron integrals.
        Stored in file 33.


Reading options from the VCD block
Calling plugin vcd.so.


	*************************
	*                       *
	*          VCD          *
	*                       *
	*************************

	Wave function  = SCF
	Dertype        = FIRST
	Presorting SO-basis two-electron integrals.
	Sorting File: SO Ints (nn|nn) nbuckets = 1
	Constructing frozen core operators
	Starting first half-transformation.
	Sorting half-transformed integrals.
	First half integral transformation complete.
	Starting second half-transformation.
	Two-electron integral transformation complete.

	Reference Wfn Parameters:
	---------------------------
	Number of irreps        = 1
	Number of MOs           = 22
	Number of active MOs    = 22
	Number of active occ    = 9
	Number of active vir    = 13
	Number of frozen occ    = 0
	Number of frozen vir    = 0

	Number of atoms         = 4
	RHF one-electron energy     =    -283.533703448835
	RHF two-electron energy     =      94.738001116471
	RHF total electronic energy =    -188.795702332364
	RHF total energy            =    -150.541733801326
  ## Testing Fock Matrix Build (Symmetry 0) ##
  Irrep: 1 Size: 22 x 22

                 1                   2                   3                   4                   5

    1   -20.59629383445213     0.00000000000112    -0.00000000000016     0.00000000000005     0.00000000000409
    2     0.00000000000112   -20.59621574568434     0.00000000000006    -0.00000000000304     0.00000000000001
    3    -0.00000000000015     0.00000000000006    -1.53435920815814     0.00000000000035    -0.00000000001283
    4     0.00000000000005    -0.00000000000304     0.00000000000034    -1.22542608670637    -0.00000000000008
    5     0.00000000000409     0.00000000000001    -0.00000000001283    -0.00000000000008    -0.77733914321047
    6     0.00000000000001    -0.00000000001236     0.00000000000005    -0.00000000001799     0.00000000000012
    7    -0.00000000000084     0.00000000000001     0.00000000000489     0.00000000000017    -0.00000000001945
    8     0.00000000000002     0.00000000000775     0.00000000000003    -0.00000000000318     0.00000000000025
    9    -0.00000000001663     0.00000000000000    -0.00000000000779     0.00000000000002     0.00000000004362
   10    -0.00000000000042     0.00000000000002     0.00000000000394     0.00000000000007     0.00000000000042
   11     0.00000000000002     0.00000000000244     0.00000000000009     0.00000000000605     0.00000000000001
   12     0.00000000000001     0.00000000000374     0.00000000000005    -0.00000000000878     0.00000000000013
   13     0.00000000000650     0.00000000000001     0.00000000000848     0.00000000000003    -0.00000000000455
   14     0.00000000000001    -0.00000000000140     0.00000000000006    -0.00000000000275    -0.00000000000004
   15     0.00000000000000    -0.00000000001969    -0.00000000000000    -0.00000000002997    -0.00000000000002
   16     0.00000000000923     0.00000000000001     0.00000000000559     0.00000000000002    -0.00000000003468
   17    -0.00000000001440     0.00000000000001    -0.00000000001964     0.00000000000002     0.00000000002683
   18     0.00000000000001     0.00000000000252     0.00000000000003    -0.00000000000797    -0.00000000000002
   19    -0.00000000000700     0.00000000000000    -0.00000000001072     0.00000000000008    -0.00000000000203
   20     0.00000000000001     0.00000000000196     0.00000000000000    -0.00000000001415     0.00000000000012
   21     0.00000000000278     0.00000000000004    -0.00000000001169     0.00000000000013     0.00000000000973
   22    -0.00000000000004    -0.00000000000075    -0.00000000000011     0.00000000001223    -0.00000000000002

                 6                   7                   8                   9                  10

    1     0.00000000000002    -0.00000000000084     0.00000000000002    -0.00000000001663    -0.00000000000042
    2    -0.00000000001236     0.00000000000001     0.00000000000775     0.00000000000000     0.00000000000002
    3     0.00000000000005     0.00000000000489     0.00000000000004    -0.00000000000779     0.00000000000394
    4    -0.00000000001799     0.00000000000018    -0.00000000000318     0.00000000000002     0.00000000000007
    5     0.00000000000012    -0.00000000001945     0.00000000000025     0.00000000004362     0.00000000000042
    6    -0.67721044881006     0.00000000000006     0.00000000000230     0.00000000000037    -0.00000000000003
    7     0.00000000000006    -0.60913699822778     0.00000000000023     0.00000000001062     0.00000000003792
    8     0.00000000000230     0.00000000000023    -0.54171372211022    -0.00000000000017    -0.00000000000003
    9     0.00000000000037     0.00000000001062    -0.00000000000017    -0.47115542058677    -0.00000000016803
   10    -0.00000000000003     0.00000000003792    -0.00000000000003    -0.00000000016803     0.18687300488941
   11    -0.00000000007431    -0.00000000000009     0.00000000009567    -0.00000000000003     0.00000000000006
   12     0.00000000005516    -0.00000000000012    -0.00000000002051    -0.00000000000001    -0.00000000000008
   13    -0.00000000000006     0.00000000003569     0.00000000000000    -0.00000000006479     0.00000000000016
   14    -0.00000000002570    -0.00000000000010     0.00000000009167     0.00000000000002     0.00000000000007
   15     0.00000000003492     0.00000000000004     0.00000000000175     0.00000000000019     0.00000000000001
   16     0.00000000000001    -0.00000000006550     0.00000000000017     0.00000000003774     0.00000000000928
   17     0.00000000000013    -0.00000000001189    -0.00000000000000     0.00000000004296    -0.00000000001802
   18    -0.00000000004497     0.00000000000012    -0.00000000002439    -0.00000000000003     0.00000000000006
   19    -0.00000000000000    -0.00000000000635    -0.00000000000003    -0.00000000005449    -0.00000000000061
   20     0.00000000004887    -0.00000000000001    -0.00000000003657     0.00000000000003    -0.00000000000009
   21     0.00000000000001     0.00000000001632     0.00000000000001    -0.00000000005653    -0.00000000000718
   22     0.00000000002056    -0.00000000000003    -0.00000000001142    -0.00000000000000    -0.00000000000009

                11                  12                  13                  14                  15

    1     0.00000000000003     0.00000000000001     0.00000000000650     0.00000000000001     0.00000000000000
    2     0.00000000000244     0.00000000000374     0.00000000000001    -0.00000000000139    -0.00000000001969
    3     0.00000000000009     0.00000000000005     0.00000000000848     0.00000000000006    -0.00000000000000
    4     0.00000000000605    -0.00000000000878     0.00000000000003    -0.00000000000275    -0.00000000002997
    5     0.00000000000001     0.00000000000013    -0.00000000000455    -0.00000000000004    -0.00000000000002
    6    -0.00000000007431     0.00000000005516    -0.00000000000006    -0.00000000002570     0.00000000003492
    7    -0.00000000000009    -0.00000000000013     0.00000000003569    -0.00000000000010     0.00000000000004
    8     0.00000000009567    -0.00000000002051     0.00000000000000     0.00000000009167     0.00000000000175
    9    -0.00000000000003    -0.00000000000001    -0.00000000006479     0.00000000000002     0.00000000000018
   10     0.00000000000005    -0.00000000000008     0.00000000000016     0.00000000000007     0.00000000000001
   11     0.22342711299278    -0.00000000001616     0.00000000000005    -0.00000000002430    -0.00000000001084
   12    -0.00000000001616     0.35214204589128    -0.00000000000007    -0.00000000000833     0.00000000001762
   13     0.00000000000005    -0.00000000000007     1.10134443300597     0.00000000000014    -0.00000000000011
   14    -0.00000000002430    -0.00000000000833     0.00000000000014     1.11614852615864    -0.00000000001314
   15    -0.00000000001083     0.00000000001762    -0.00000000000011    -0.00000000001314     1.18361548904066
   16    -0.00000000000005     0.00000000000002     0.00000000000822    -0.00000000000020    -0.00000000000007
   17    -0.00000000000002     0.00000000000003    -0.00000000001381     0.00000000000001     0.00000000000028
   18     0.00000000000898     0.00000000000538     0.00000000000007     0.00000000002556    -0.00000000000963
   19     0.00000000000001    -0.00000000000017     0.00000000000932    -0.00000000000007     0.00000000000014
   20    -0.00000000000038     0.00000000000022    -0.00000000000005     0.00000000000865     0.00000000001597
   21     0.00000000000014     0.00000000000010    -0.00000000000552     0.00000000000010    -0.00000000000002
   22     0.00000000000511    -0.00000000000133    -0.00000000000001     0.00000000000065    -0.00000000001308

                16                  17                  18                  19                  20

    1     0.00000000000923    -0.00000000001440     0.00000000000002    -0.00000000000700     0.00000000000001
    2     0.00000000000001     0.00000000000001     0.00000000000252     0.00000000000001     0.00000000000196
    3     0.00000000000559    -0.00000000001964     0.00000000000003    -0.00000000001072     0.00000000000000
    4     0.00000000000002     0.00000000000002    -0.00000000000798     0.00000000000008    -0.00000000001414
    5    -0.00000000003468     0.00000000002683    -0.00000000000002    -0.00000000000203     0.00000000000012
    6     0.00000000000001     0.00000000000013    -0.00000000004497    -0.00000000000000     0.00000000004887
    7    -0.00000000006550    -0.00000000001189     0.00000000000011    -0.00000000000635    -0.00000000000001
    8     0.00000000000017    -0.00000000000000    -0.00000000002439    -0.00000000000003    -0.00000000003657
    9     0.00000000003774     0.00000000004296    -0.00000000000003    -0.00000000005449     0.00000000000003
   10     0.00000000000928    -0.00000000001803     0.00000000000006    -0.00000000000061    -0.00000000000009
   11    -0.00000000000005    -0.00000000000002     0.00000000000898     0.00000000000001    -0.00000000000038
   12     0.00000000000002     0.00000000000003     0.00000000000538    -0.00000000000017     0.00000000000022
   13     0.00000000000822    -0.00000000001381     0.00000000000007     0.00000000000933    -0.00000000000005
   14    -0.00000000000020     0.00000000000001     0.00000000002556    -0.00000000000007     0.00000000000865
   15    -0.00000000000007     0.00000000000028    -0.00000000000964     0.00000000000014     0.00000000001597
   16     1.23379718205033     0.00000000000043     0.00000000000019     0.00000000000259     0.00000000000016
   17     0.00000000000043     1.32000997386970    -0.00000000000001    -0.00000000000461     0.00000000000013
   18     0.00000000000019    -0.00000000000001     1.33707459908774     0.00000000000023    -0.00000000001328
   19     0.00000000000259    -0.00000000000461     0.00000000000023     1.40970862383824    -0.00000000000023
   20     0.00000000000016     0.00000000000013    -0.00000000001328    -0.00000000000024     1.44333297700353
   21    -0.00000000000647    -0.00000000000101     0.00000000000005     0.00000000000670    -0.00000000000001
   22    -0.00000000000005    -0.00000000000006     0.00000000001202    -0.00000000000002     0.00000000000818

                21                  22

    1     0.00000000000278    -0.00000000000004
    2     0.00000000000004    -0.00000000000076
    3    -0.00000000001169    -0.00000000000011
    4     0.00000000000013     0.00000000001223
    5     0.00000000000973    -0.00000000000002
    6     0.00000000000001     0.00000000002056
    7     0.00000000001632    -0.00000000000003
    8     0.00000000000001    -0.00000000001142
    9    -0.00000000005653    -0.00000000000000
   10    -0.00000000000719    -0.00000000000009
   11     0.00000000000014     0.00000000000511
   12     0.00000000000010    -0.00000000000134
   13    -0.00000000000552    -0.00000000000001
   14     0.00000000000010     0.00000000000065
   15    -0.00000000000002    -0.00000000001308
   16    -0.00000000000648    -0.00000000000005
   17    -0.00000000000101    -0.00000000000006
   18     0.00000000000005     0.00000000001203
   19     0.00000000000670    -0.00000000000003
   20    -0.00000000000001     0.00000000000817
   21     1.75190513580510    -0.00000000000024
   22    -0.00000000000024     2.04359965865446



  ## Nuclear Repulsion Energy 1st Derivatives (Symmetry 0) ##
  Irrep: 1 Size: 4 x 3

                 1                   2                   3

    1     1.29370426723870     9.26510059748899     2.54615063214910
    2    -1.29370426723870    -9.26510059748899     2.54615063214910
    3    -1.16619042584101     1.23247474761017    -2.54615063214910
    4     1.16619042584101    -1.23247474761017    -2.54615063214910



  ## Core Hamiltonian Gradient (Symmetry 0) ##
  Irrep: 1 Size: 4 x 3

                 1                   2                   3

    1    -2.92451087512830   -15.18715108232994    -5.59466333043855
    2     2.92451087512795    15.18715108232959    -5.59466333043745
    3     2.47270809413771    -2.07949588567592     5.59466333043844
    4    -2.47270809413736     2.07949588567626     5.59466333043779



  ## Overlap Gradient (Symmetry 0) ##
  Irrep: 1 Size: 4 x 3

                 1                   2                   3

    1     0.16282648945538     0.05446411443052     0.29290321661455
    2    -0.16282648945532    -0.05446411443056     0.29290321661441
    3    -0.13026756675211     0.05481348893281    -0.29290321661455
    4     0.13026756675206    -0.05481348893277    -0.29290321661441



  ## Coulomb Gradient (Symmetry 0) ##
  Irrep: 1 Size: 4 x 3

                 1                   2                   3

    1     1.64464918802813     5.81311411091520     3.11906684672115
    2    -1.64464918802781    -5.81311411091486     3.11906684672011
    3    -1.34397893626884     0.89293790080895    -3.11906684672093
    4     1.34397893626852    -0.89293790080929    -3.11906684672032



  ## Exchange Gradient (Symmetry 0) ##
  Irrep: 1 Size: 4 x 3

                 1                   2                   3

    1    -0.16650088764084     0.09944182239626    -0.35371170915629
    2     0.16650088764080    -0.09944182239628    -0.35371170915618
    3     0.15338447931039    -0.07989050511532     0.35371170915627
    4    -0.15338447931035     0.07989050511534     0.35371170915620



  ## RHF Gradient (Symmetry 0) ##
  Irrep: 1 Size: 4 x 3

                 1                   2                   3

    1     0.01016818195306     0.04496956290103     0.00974565588997
    2    -0.01016818195306    -0.04496956290110     0.00974565588999
    3    -0.01434435541388     0.02083974656070    -0.00974565588987
    4     0.01434435541388    -0.02083974656063    -0.00974565588985



  ## CPHF Coefficients for R(0, 0) (Symmetry 0) ##
  Irrep: 1 Size: 13 x 9

                 1                   2                   3                   4                   5

    1     0.00012855695943     0.00038535746989    -0.00107672291768     0.00931107572654    -0.02075580032380
    2     0.00033942368652     0.00066328356953     0.00318575092861     0.00844663661683    -0.00942260031406
    3    -0.00041155023824    -0.00092683793561    -0.00496083207537    -0.00525457810671     0.00297866484232
    4    -0.00043716125347    -0.00022364972370    -0.01954896722717    -0.02154449029286     0.02182998575190
    5    -0.00060839209779    -0.00126549428514    -0.00871747045365    -0.01559299952985     0.01405136799719
    6    -0.00097253242586    -0.00336658189947    -0.00100733961059    -0.01237846011092    -0.01032035182473
    7     0.00058804409612     0.00047258007926    -0.00743699575886    -0.00878861676256     0.00972104080097
    8    -0.00125794661052    -0.00075283204422     0.00348565821866    -0.00676808235217     0.01400407972071
    9    -0.00028173020583     0.00036987122448    -0.00720532905748    -0.00903395797149     0.01235627351905
   10    -0.00023699127785    -0.00038184749747     0.00015106146273     0.00464777852539    -0.01698491822384
   11     0.00022602693239    -0.00020360333110    -0.00638500169034    -0.01350647694217     0.01386067975813
   12     0.00002261144339    -0.00022825011870     0.00702693887209     0.00933045937911    -0.01016332053229
   13     0.00001537467322     0.00007866853194    -0.00546108066257    -0.01109524376562     0.01580843002587

                 6                   7                   8                   9

    1    -0.04815226536929     0.01473166688210    -0.00175270974159    -0.02754231103811
    2    -0.17206050034018    -0.00422405283137     0.07846343327622    -0.04361662233438
    3    -0.13828234334681    -0.00829917743836     0.06932565581769     0.04397794624774
    4    -0.02659932146221     0.00443599795429     0.04488929467108    -0.03583654290912
    5    -0.05753258970585     0.00437351088895     0.05325847491996    -0.04602479223919
    6     0.01809185096436     0.00516040601881    -0.01384996986073    -0.00556719822012
    7     0.01153493586979    -0.00248805927071     0.00601035174164     0.01423599831223
    8    -0.00673393992750    -0.01137811785344     0.00665307459115    -0.00682610709566
    9     0.00257788299014    -0.00144349312690     0.01008476510919    -0.02454668284624
   10    -0.01321029781477     0.00710069357481    -0.00398268948601    -0.03175288206973
   11    -0.00986121780014    -0.00097189373072     0.02138868361035     0.00825314297292
   12    -0.00922569920683    -0.00278714834878    -0.01475024338318     0.01940140063509
   13     0.01765996558441    -0.00282422626252     0.00791018537557    -0.00100022997660



  ## CPHF Coefficients for R(0, 1) (Symmetry 0) ##
  Irrep: 1 Size: 13 x 9

                 1                   2                   3                   4                   5

    1    -0.00045602887298     0.00004762385423     0.01300220221994    -0.00988939212086     0.00181331376660
    2    -0.00098047578060    -0.00101229479939    -0.01351282298865    -0.07675287395416     0.02179646000709
    3     0.00044979488227     0.00090742494655    -0.00753477961032    -0.05670200922861     0.02329877290417
    4     0.00015151563530     0.00003337295075     0.02619157343727     0.00483638549682     0.00073705669273
    5     0.00022585974890    -0.00082615650553     0.00766138527545    -0.02827212946345     0.00628025188805
    6    -0.00035148539680     0.00023008437259     0.00124899534900     0.01074010726003    -0.00797351568525
    7    -0.00039167565457    -0.00042993640062    -0.00537802283790     0.00585373057757     0.00549559044661
    8     0.00009712793829     0.00012358058230     0.01369262032282     0.00552791552917    -0.00047233035120
    9    -0.00011240086265     0.00048431952057     0.00920061046632     0.01566979725531    -0.01297140498924
   10     0.00006841255299    -0.00063081687933    -0.04352837695214     0.00103478768306    -0.06033149206548
   11     0.00000500754601    -0.00119669145235     0.00215178685147    -0.00995837413039    -0.00846816300744
   12    -0.00048972188153     0.00053458542214     0.04848757861330    -0.00940630676659     0.07814591053679
   13    -0.00023671195940     0.00251820198509     0.00577007419744     0.04004024382884    -0.01171385712463

                 6                   7                   8                   9

    1     0.00250652031953    -0.11550633156229     0.01989990957584     0.03422834376101
    2    -0.03615672622899    -0.02318264975328     0.01742979053574     0.03611396994630
    3    -0.00932426321581     0.00660085950721    -0.05337274166038     0.01957000881799
    4    -0.01252747433648    -0.07536133725886    -0.00995136784361     0.00874445372754
    5    -0.00881422738560    -0.03683176904421     0.00610660294756     0.00099182575456
    6     0.02867226144574    -0.00063730893843    -0.00965162461485    -0.00960902309895
    7    -0.00591994139848     0.01927861475118    -0.01172387290099     0.00350952834225
    8    -0.00997245736987    -0.01606263044113    -0.00547408060809    -0.04767600474504
    9    -0.01994710292264    -0.02386904404351    -0.01738146259440    -0.00666008742331
   10    -0.00589345321572     0.04731530192609    -0.00534453268206     0.01290515349567
   11    -0.00296413108373    -0.00083505198127    -0.03696737635202    -0.00000391927238
   12     0.01002208420057    -0.08287026286390     0.01124705337973    -0.00724127699711
   13    -0.00669952340626    -0.00853439355125    -0.00868910977227    -0.00346007907295



  ## CPHF Coefficients for R(0, 2) (Symmetry 0) ##
  Irrep: 1 Size: 13 x 9

                 1                   2                   3                   4                   5

    1     0.00112835314395     0.00164045833764     0.01768794990297     0.01921028315036    -0.05588016166875
    2     0.00002936476040     0.00048415603109     0.00567895057292     0.00986309534768    -0.14112013270252
    3    -0.00094199761423    -0.00062407431604     0.01330833957845    -0.01378320229284    -0.06780622341389
    4    -0.00112536493808    -0.00192194377875    -0.02538940792587    -0.04776889707282     0.02808937919058
    5    -0.00081305720850    -0.00055326511806    -0.02570939500346    -0.03116876021452    -0.01448126568511
    6     0.00022756285668     0.00016839843559    -0.00646565730899    -0.00599869912771     0.01748588612457
    7    -0.00029926938954    -0.00268711012948    -0.00735428442294    -0.02584035408759     0.01030819894139
    8    -0.00012184230968    -0.00050434626510    -0.01377094056566    -0.02702589481344     0.02334892297276
    9    -0.00148145757574    -0.00122372396379    -0.01447243501898    -0.02057772718009     0.01380070894669
   10    -0.00068007736164     0.00025436045640     0.00464088963344     0.01620575538221    -0.02096509093284
   11     0.00009662075596     0.00028745600621    -0.00325984356438    -0.02302466830539     0.02032812349167
   12    -0.00081238468598    -0.00026678959127     0.00913696841724     0.01641870880524    -0.03548978483499
   13    -0.00027882995848    -0.00008252383960    -0.01165014797933    -0.02392739712412     0.03831671543081

                 6                   7                   8                   9

    1    -0.02210407732524    -0.02113730277224    -0.04633695232615    -0.01938120730730
    2    -0.02438058908985    -0.09438738436384    -0.06285266345781     0.05961075875679
    3     0.00225209640990    -0.11788101035985     0.02996004456490     0.04346585009177
    4     0.02860651496635    -0.02522684172214     0.01784384137041     0.03034943196461
    5     0.02018749350411    -0.02511037231941    -0.00417226635975     0.04097526752890
    6     0.00172628795552     0.00540874213592     0.00658761456683    -0.01649646879372
    7     0.00684591899361     0.00067872442633     0.00835138811176     0.00381607815475
    8     0.00619322063953    -0.00566401217089     0.02527683484999     0.00778949802111
    9     0.00837783256194    -0.01415365045312    -0.00923868012743     0.00972527393458
   10    -0.01710434728610    -0.00302927059377    -0.03856271800157    -0.00372507742163
   11     0.01827041735676    -0.02634894381128     0.02728868336797     0.01562265366965
   12    -0.01564229158655     0.00702378015493    -0.01382537562867    -0.01266405136829
   13     0.01896320842256    -0.00892451337740     0.02199740679535     0.00745399014977



  ## CPHF Coefficients for R(1, 0) (Symmetry 0) ##
  Irrep: 1 Size: 13 x 9

                 1                   2                   3                   4                   5

    1    -0.00012855695361     0.00038535747183     0.00107672291772     0.00931107572647     0.02075580032374
    2     0.00033942367648    -0.00066328357466     0.00318575092857    -0.00844663661680    -0.00942260031398
    3    -0.00041155022422     0.00092683794183    -0.00496083207536     0.00525457810670     0.00297866484242
    4     0.00043716125008    -0.00022364973031     0.01954896722708    -0.02154449029279    -0.02182998575177
    5    -0.00060839207865     0.00126549429434    -0.00871747045386     0.01559299953012     0.01405136799748
    6    -0.00097253237493     0.00336658191418    -0.00100733961056     0.01237846011089    -0.01032035182477
    7    -0.00058804408897     0.00047258008816     0.00743699575881    -0.00878861676249    -0.00972104080090
    8     0.00125794659914    -0.00075283206326    -0.00348565821865    -0.00676808235224    -0.01400407972071
    9    -0.00028173021142    -0.00036987122022    -0.00720532905751     0.00903395797154     0.01235627351912
   10     0.00023699127207    -0.00038184750106    -0.00015106146265     0.00464777852525     0.01698491822367
   11     0.00022602693547     0.00020360332768    -0.00638500169033     0.01350647694224     0.01386067975830
   12    -0.00002261144684    -0.00022825011836    -0.00702693887209     0.00933045937913     0.01016332053226
   13     0.00001537467204    -0.00007866853217    -0.00546108066258     0.01109524376566     0.01580843002584

                 6                   7                   8                   9

    1    -0.04815226536922    -0.01473166688204    -0.00175270974170     0.02754231103840
    2     0.17206050034031    -0.00422405283176    -0.07846343327612    -0.04361662233586
    3     0.13828234334676    -0.00829917743867    -0.06932565581775     0.04397794624669
    4    -0.02659932146154    -0.00443599795405     0.04488929467050     0.03583654290890
    5     0.05753258970603     0.00437351088875    -0.05325847492039    -0.04602479223984
    6    -0.01809185096444     0.00516040601892     0.01384996986081    -0.00556719821994
    7     0.01153493586987     0.00248805927074     0.00601035174155    -0.01423599831238
    8    -0.00673393992742     0.01137811785347     0.00665307459107     0.00682610709577
    9    -0.00257788299026    -0.00144349312697    -0.01008476510920    -0.02454668284620
   10    -0.01321029781473    -0.00710069357480    -0.00398268948592     0.03175288206976
   11     0.00986121780004    -0.00097189373089    -0.02138868361043     0.00825314297313
   12    -0.00922569920691     0.00278714834873    -0.01475024338313    -0.01940140063513
   13    -0.01765996558443    -0.00282422626252    -0.00791018537561    -0.00100022997679



  ## CPHF Coefficients for R(1, 1) (Symmetry 0) ##
  Irrep: 1 Size: 13 x 9

                 1                   2                   3                   4                   5

    1     0.00045602887370     0.00004762384734    -0.01300220221994    -0.00988939212074    -0.00181331376660
    2    -0.00098047576529     0.00101229481422    -0.01351282298873     0.07675287395416     0.02179646000718
    3     0.00044979486855    -0.00090742495336    -0.00753477961049     0.05670200922866     0.02329877290416
    4    -0.00015151563479     0.00003337295305    -0.02619157343720     0.00483638549717    -0.00073705669267
    5     0.00022585976139     0.00082615650212     0.00766138527581     0.02827212946337     0.00628025188806
    6    -0.00035148540027    -0.00023008436727     0.00124899534887    -0.01074010726001    -0.00797351568524
    7     0.00039167564807    -0.00042993640654     0.00537802283794     0.00585373057759    -0.00549559044667
    8    -0.00009712793642     0.00012358058377    -0.01369262032283     0.00552791552925     0.00047233035121
    9    -0.00011240086997    -0.00048431951888     0.00920061046632    -0.01566979725532    -0.01297140498894
   10    -0.00006841256253    -0.00063081687831     0.04352837695209     0.00103478768300     0.06033149206560
   11     0.00000500756410     0.00119669145227     0.00215178685194     0.00995837413037    -0.00846816300687
   12     0.00048972188962     0.00053458541474    -0.04848757861332    -0.00940630676654    -0.07814591053675
   13    -0.00023671199747    -0.00251820198151     0.00577007419712    -0.04004024382886    -0.01171385712471

                 6                   7                   8                   9

    1     0.00250652031970     0.11550633156234     0.01989990957530    -0.03422834376086
    2     0.03615672622892    -0.02318264975377    -0.01742979053579     0.03611396994609
    3     0.00932426321580     0.00660085950715     0.05337274166022     0.01957000881805
    4    -0.01252747433628     0.07536133725845    -0.00995136784403    -0.00874445372751
    5     0.00881422738571    -0.03683176904490    -0.00610660294727     0.00099182575460
    6    -0.02867226144579    -0.00063730893824     0.00965162461488    -0.00960902309884
    7    -0.00591994139851    -0.01927861475134    -0.01172387290089    -0.00350952834230
    8    -0.00997245736968     0.01606263044116    -0.00547408060833     0.04767600474508
    9     0.01994710292262    -0.02386904404365     0.01738146259454    -0.00666008742330
   10    -0.00589345321594    -0.04731530192603    -0.00534453268224    -0.01290515349564
   11     0.00296413108371    -0.00083505198142     0.03696737635203    -0.00000391927247
   12     0.01002208420073     0.08287026286394     0.01124705337948     0.00724127699711
   13     0.00669952340627    -0.00853439355122     0.00868910977235    -0.00346007907297



  ## CPHF Coefficients for R(1, 2) (Symmetry 0) ##
  Irrep: 1 Size: 13 x 9

                 1                   2                   3                   4                   5

    1     0.00112835311913    -0.00164045835471     0.01768794990291    -0.01921028315028    -0.05588016166854
    2    -0.00002936475308     0.00048415603154    -0.00567895057289     0.00986309534766     0.14112013270259
    3     0.00094199760479    -0.00062407433029    -0.01330833957847    -0.01378320229275     0.06780622341385
    4    -0.00112536490899     0.00192194379577    -0.02538940792560     0.04776889707261     0.02808937919076
    5     0.00081305720014    -0.00055326513038     0.02570939500374    -0.03116876021516     0.01448126568479
    6    -0.00022756285413     0.00016839843903     0.00646565730893    -0.00599869912763    -0.01748588612449
    7    -0.00029926934889     0.00268711013401    -0.00735428442280     0.02584035408749     0.01030819894136
    8    -0.00012184230205     0.00050434626694    -0.01377094056568     0.02702589481350     0.02334892297278
    9     0.00148145755722    -0.00122372398621     0.01447243501901    -0.02057772718026    -0.01380070894681
   10    -0.00068007736549    -0.00025436044611     0.00464088963334    -0.01620575538197    -0.02096509093253
   11    -0.00009662075161     0.00028745600767     0.00325984356444    -0.02302466830564    -0.02032812349183
   12    -0.00081238468195     0.00026678960357     0.00913696841723    -0.01641870880525    -0.03548978483497
   13     0.00027882995723    -0.00008252384381     0.01165014797934    -0.02392739712418    -0.03831671543081

                 6                   7                   8                   9

    1     0.02210407732533    -0.02113730277216     0.04633695232648    -0.01938120730733
    2    -0.02438058909017     0.09438738436379    -0.06285266345888    -0.05961075875692
    3     0.00225209640985     0.11788101035984     0.02996004456415    -0.04346585009169
    4    -0.02860651496618    -0.02522684172196    -0.01784384137048     0.03034943196421
    5     0.02018749350438     0.02511037231968    -0.00417226635953    -0.04097526752930
    6     0.00172628795552    -0.00540874213594     0.00658761456675     0.01649646879380
    7    -0.00684591899355     0.00067872442640    -0.00835138811178     0.00381607815467
    8    -0.00619322063955    -0.00566401217098    -0.02527683484998     0.00778949802101
    9     0.00837783256203     0.01415365045309    -0.00923868012736    -0.00972527393466
   10     0.01710434728594    -0.00302927059386     0.03856271800142    -0.00372507742143
   11     0.01827041735694     0.02634894381137     0.02728868336830    -0.01562265366966
   12     0.01564229158656     0.00702378015495     0.01382537562869    -0.01266405136827
   13     0.01896320842260     0.00892451337750     0.02199740679525    -0.00745399014978



  ## CPHF Coefficients for R(2, 0) (Symmetry 0) ##
  Irrep: 1 Size: 13 x 9

                 1                   2                   3                   4                   5

    1    -0.00011256139233    -0.00038535747001    -0.00513177735156    -0.00931107572653     0.01124447877649
    2    -0.00033942368565    -0.00054939247197    -0.00318575092860    -0.00436910443436     0.00942260031402
    3     0.00041155023567     0.00058645412613     0.00496083207537     0.00709993564393    -0.00297866484237
    4     0.00033268065168     0.00022364972449     0.01334549463312     0.02154449029287    -0.03103700180158
    5     0.00060839209249     0.00056430447276     0.00871747045368     0.01293533439601    -0.01405136799715
    6     0.00097253240723     0.00090391650352     0.00100733961058    -0.00381581853251     0.01032035182475
    7    -0.00045185293626    -0.00047258008029     0.00388984789954     0.00878861676255    -0.01134066667445
    8     0.00073749301951     0.00075283204816     0.00515254674929     0.00676808235220    -0.00446595196319
    9     0.00028173021055     0.00025524911724     0.00720532905749     0.01173274847414    -0.01235627351905
   10     0.00034365017301     0.00038184749666    -0.00233496016066    -0.00464777852538     0.00968056258372
   11    -0.00022602693679    -0.00037865293720     0.00638500169032     0.01008247793593    -0.01386067975818
   12     0.00013732539252     0.00022825011749    -0.00484986033188    -0.00933045937911     0.01580494808557
   13    -0.00001537467350    -0.00011455495400     0.00546108066257     0.01078471460316    -0.01580843002585

                 6                   7                   8                   9

    1     0.04815226536926    -0.00713714686959     0.00175270974159     0.06549380990053
    2     0.02954326611480     0.00422405283155     0.00253768229868     0.04361662233492
    3    -0.02554837273289     0.00829917743856     0.01380654053149    -0.04397794624708
    4     0.02659932146205    -0.00024405644230    -0.04488929467098     0.05297303474250
    5     0.02640410700094    -0.00437351088892    -0.03088628219170     0.04602479223915
    6     0.00601507255828    -0.00516040601886     0.00938350899898     0.00556719822010
    7    -0.01153493586979     0.00417730559025    -0.00601035174164    -0.00867768074259
    8     0.00673393992745    -0.00088884328737    -0.00665307459111     0.00849748853577
    9     0.01318603227393     0.00144349312688    -0.02074987140394     0.02454668284620
   10     0.01321029781478    -0.00173956332656     0.00398268948602     0.01472473642983
   11    -0.01127025152315     0.00097189373078    -0.01019043043435    -0.00825314297298
   12     0.00922569920686    -0.00264560198535     0.01475024338315     0.00114548872637
   13    -0.00450223944458     0.00282422626249    -0.01439171218527     0.00100022997667



  ## CPHF Coefficients for R(2, 1) (Symmetry 0) ##
  Irrep: 1 Size: 13 x 9

                 1                   2                   3                   4                   5

    1     0.00016692631575    -0.00004762385205     0.00128168577960     0.00988939212084    -0.00269180615281
    2     0.00098047577822     0.00069706840546     0.01351282298868     0.02381936548212    -0.02179646000711
    3    -0.00044979487657    -0.00015384279527     0.00753477961042     0.01616645672448    -0.02329877290418
    4     0.00015146928510    -0.00003337295305    -0.01237686175219    -0.00483638549697     0.00871390553550
    5    -0.00022585975815    -0.00039621883117    -0.00766138527556     0.00188775862297    -0.00628025188811
    6     0.00035148540151     0.00039336905414    -0.00124899534895    -0.00443981051689     0.00797351568526
    7     0.00043002053302     0.00042993640032    -0.00105932161601    -0.00585373057759     0.00849357759511
    8    -0.00002337419016    -0.00012358058286    -0.00512716728852    -0.00552791552920     0.00777454032369
    9     0.00011240086676     0.00005960536667    -0.00920061046632    -0.00819018190178     0.01297140498911
   10     0.00054949476386     0.00063081687467    -0.00133468153966    -0.00103478768300     0.00660201954010
   11    -0.00000500755710    -0.00027146136399    -0.00215178685171    -0.00414804556851     0.00846816300718
   12    -0.00077657641637    -0.00053458541257     0.00110946248094     0.00940630676656    -0.01577886177683
   13     0.00023671197915     0.00009509379963    -0.00577007419728    -0.00574719143599     0.01171385712467

                 6                   7                   8                   9

    1    -0.00250652031960     0.02276360390245    -0.01989990957565    -0.01287931185103
    2    -0.00684054446384     0.02318264975341    -0.04812225208396    -0.03611396994627
    3    -0.01819719360862    -0.00660085950723    -0.03866517918447    -0.01957000881804
    4     0.01252747433642     0.04342224907650     0.00995136784368     0.00634103411784
    5     0.00514882289824     0.03683176904432    -0.00331623904302    -0.00099182575463
    6     0.00422774460171     0.00063730893840     0.00924231842638     0.00960902309892
    7     0.00591994139852    -0.00269321912107     0.01172387290096     0.00221681689621
    8     0.00997245736977     0.00786242284023     0.00547408060816     0.00557679150724
    9     0.01348314395137     0.02386904404362     0.01632139607063     0.00666008742331
   10     0.00589345321579     0.00547700946981     0.00534453268210     0.00195516164669
   11     0.00289141986653     0.00083505198136     0.00226769187686     0.00000391927242
   12    -0.01002208420064     0.00138606186383    -0.01124705337959    -0.00403369225330
   13     0.00894431898386     0.00853439355124     0.00815220416823     0.00346007907296



  ## CPHF Coefficients for R(2, 2) (Symmetry 0) ##
  Irrep: 1 Size: 13 x 9

                 1                   2                   3                   4                   5

    1    -0.00112835313848    -0.00091826479134    -0.01768794990298    -0.02066646854565     0.05588016166870
    2    -0.00068292063515    -0.00048415602615    -0.00843944416389    -0.00986309534769     0.03500858344100
    3     0.00079462498038     0.00062407431715     0.01048353513174     0.01378320229280    -0.01900600065348
    4     0.00112536493147     0.00104888734715     0.02538940792583     0.04279585875723    -0.02808937919076
    5     0.00063759958555     0.00055326511939     0.01868424494785     0.03116876021458    -0.02104657079243
    6    -0.00019045691655    -0.00016839843587     0.00267972558168     0.00599869912772    -0.00752191971489
    7     0.00029926937205     0.00037428507485     0.00735428442291     0.01054988331339    -0.01030819894142
    8     0.00012184230660     0.00009713864633     0.01377094056567     0.02239251042010    -0.02334892297279
    9     0.00142474044611     0.00122372396423     0.01486575025078     0.02057772718012    -0.00678378384161
   10     0.00068007736766     0.00054152674147    -0.00464088963347    -0.00866125683022     0.02096509093284
   11    -0.00052700720080    -0.00028745600295     0.01271465869623     0.02302466830544    -0.03131266530840
   12     0.00081238468830     0.00057339555191    -0.00913696841724    -0.02006856408985     0.03548978483502
   13    -0.00008355247413     0.00008252384234     0.01183432294430     0.02392739712411    -0.03248798810013

                 6                   7                   8                   9

    1     0.02539297759784     0.02113730277229     0.08607939521769     0.01938120730744
    2     0.02438058908995     0.02552220222796     0.06285266345809     0.01477895940378
    3    -0.00225209640983    -0.00459981493685    -0.02996004456444     0.00884322952779
    4    -0.02808895070772     0.02522684172214     0.00259822677523    -0.03034943196447
    5    -0.02018749350408     0.02026445385353     0.00417226635963    -0.02218597378106
    6    -0.00172628795554     0.00316639796418    -0.00658761456679     0.00164798620978
    7    -0.00443353438616    -0.00067872442634    -0.00627643601152    -0.00381607815475
    8    -0.01134983156605     0.00566401217089    -0.01555856001405    -0.00778949802107
    9    -0.00837783256194     0.01360836148598     0.00923868012743    -0.01343410317461
   10     0.01129794492059     0.00302927059382     0.02215988801497     0.00372507742161
   11    -0.01827041735678     0.00262142366835    -0.02728868336802    -0.01002450878774
   12     0.02015738853327    -0.00702378015489     0.02899938327574     0.01266405136830
   13    -0.01896320842255     0.00937689174908    -0.02199740679527    -0.01131295323980



  ## CPHF Coefficients for R(3, 0) (Symmetry 0) ##
  Irrep: 1 Size: 13 x 9

                 1                   2                   3                   4                   5

    1     0.00011256138650    -0.00038535747171     0.00513177735153    -0.00931107572648    -0.01124447877643
    2    -0.00033942367734     0.00054939247710    -0.00318575092858     0.00436910443434     0.00942260031402
    3     0.00041155022680    -0.00058645413236     0.00496083207536    -0.00709993564392    -0.00297866484237
    4    -0.00033268064830     0.00022364972952    -0.01334549463303     0.02154449029278     0.03103700180144
    5     0.00060839208396    -0.00056430448196     0.00871747045383    -0.01293533439628    -0.01405136799752
    6     0.00097253239356    -0.00090391651823     0.00100733961057     0.00381581853254     0.01032035182475
    7     0.00045185292911    -0.00047258008713    -0.00388984789949     0.00878861676250     0.01134066667438
    8    -0.00073749300813     0.00075283205932    -0.00515254674930     0.00676808235222     0.00446595196319
    9     0.00028173020669    -0.00025524912150     0.00720532905750    -0.01173274847420    -0.01235627351913
   10    -0.00034365016723     0.00038184750186     0.00233496016059    -0.00464777852526    -0.00968056258355
   11    -0.00022602693107     0.00037865294062     0.00638500169035    -0.01008247793601    -0.01386067975825
   12    -0.00013732538907     0.00022825011957     0.00484986033187    -0.00933045937912    -0.01580494808553
   13    -0.00001537467176     0.00011455495423     0.00546108066258    -0.01078471460319    -0.01580843002586

                 6                   7                   8                   9

    1     0.04815226536925     0.00713714686952     0.00175270974170    -0.06549380990082
    2    -0.02954326611493     0.00422405283158    -0.00253768229878     0.04361662233532
    3     0.02554837273293     0.00829917743847    -0.01380654053143    -0.04397794624735
    4     0.02659932146169     0.00024405644206    -0.04488929467059    -0.05297303474229
    5    -0.02640410700112    -0.00437351088878     0.03088628219214     0.04602479223988
    6    -0.00601507255820    -0.00516040601888    -0.00938350899905     0.00556719821996
    7    -0.01153493586987    -0.00417730559028    -0.00601035174155     0.00867768074274
    8     0.00673393992748     0.00088884328735    -0.00665307459112    -0.00849748853588
    9    -0.01318603227380     0.00144349312699     0.02074987140395     0.02454668284624
   10     0.01321029781472     0.00173956332655     0.00398268948592    -0.01472473642986
   11     0.01127025152324     0.00097189373083     0.01019043043443    -0.00825314297306
   12     0.00922569920687     0.00264560198540     0.01475024338316    -0.00114548872633
   13     0.00450223944460     0.00282422626255     0.01439171218531     0.00100022997673



  ## CPHF Coefficients for R(3, 1) (Symmetry 0) ##
  Irrep: 1 Size: 13 x 9

                 1                   2                   3                   4                   5

    1    -0.00016692631647    -0.00004762384952    -0.00128168577960     0.00988939212077     0.00269180615280
    2     0.00098047576767    -0.00069706842029     0.01351282298869    -0.02381936548212    -0.02179646000715
    3    -0.00044979487424     0.00015384280208     0.00753477961039    -0.01616645672453    -0.02329877290414
    4    -0.00015146928561    -0.00003337295076     0.01237686175212    -0.00483638549702    -0.00871390553556
    5    -0.00022585975215     0.00039621883459    -0.00766138527570    -0.00188775862289    -0.00628025188800
    6     0.00035148539556    -0.00039336905946    -0.00124899534891     0.00443981051688     0.00797351568522
    7    -0.00043002052651     0.00042993640683     0.00105932161596    -0.00585373057757    -0.00849357759505
    8     0.00002337418829    -0.00012358058321     0.00512716728853    -0.00552791552922    -0.00777454032369
    9     0.00011240086586    -0.00005960536837    -0.00920061046632     0.00819018190180     0.01297140498907
   10    -0.00054949475432     0.00063081688298     0.00133468153972    -0.00103478768306    -0.00660201954021
   11    -0.00000500755300     0.00027146136407    -0.00215178685170     0.00414804556853     0.00846816300713
   12     0.00077657640828    -0.00053458542432    -0.00110946248091     0.00940630676656     0.01577886177679
   13     0.00023671197771    -0.00009509380321    -0.00577007419728     0.00574719143601     0.01171385712466

                 6                   7                   8                   9

    1    -0.00250652031964    -0.02276360390250    -0.01989990957549     0.01287931185088
    2     0.00684054446391     0.02318264975363     0.04812225208401    -0.03611396994613
    3     0.01819719360863    -0.00660085950713     0.03866517918464    -0.01957000881800
    4     0.01252747433634    -0.04342224907609     0.00995136784395    -0.00634103411788
    5    -0.00514882289835     0.03683176904478     0.00331623904273    -0.00099182575453
    6    -0.00422774460166     0.00063730893827    -0.00924231842641     0.00960902309888
    7     0.00591994139847     0.00269321912123     0.01172387290092    -0.00221681689617
    8     0.00997245736979    -0.00786242284025     0.00547408060826    -0.00557679150728
    9    -0.01348314395134     0.02386904404354    -0.01632139607077     0.00666008742329
   10     0.00589345321586    -0.00547700946987     0.00534453268221    -0.00195516164672
   11    -0.00289141986651     0.00083505198133    -0.00226769187686     0.00000391927242
   12    -0.01002208420065    -0.00138606186388    -0.01124705337962     0.00403369225329
   13    -0.00894431898388     0.00853439355122    -0.00815220416831     0.00346007907296



  ## CPHF Coefficients for R(3, 2) (Symmetry 0) ##
  Irrep: 1 Size: 13 x 9

                 1                   2                   3                   4                   5

    1    -0.00112835312459     0.00091826480841    -0.01768794990291     0.02066646854557     0.05588016166859
    2     0.00068292062783    -0.00048415603648     0.00843944416386    -0.00986309534764    -0.03500858344106
    3    -0.00079462497094     0.00062407432917    -0.01048353513172     0.01378320229278     0.01900600065351
    4     0.00112536491560    -0.00104888736416     0.02538940792565    -0.04279585875701    -0.02808937919058
    5    -0.00063759957719     0.00055326512905    -0.01868424494813     0.03116876021510     0.02104657079274
    6     0.00019045691400    -0.00016839843875    -0.00267972558162     0.00599869912762     0.00752191971481
    7     0.00029926936638    -0.00037428507938     0.00735428442283    -0.01054988331328    -0.01030819894133
    8     0.00012184230513    -0.00009713864817     0.01377094056567    -0.02239251042016    -0.02334892297276
    9    -0.00142474042760     0.00122372398578    -0.01486575025082     0.02057772718022     0.00678378384173
   10     0.00068007735947    -0.00054152675176    -0.00464088963331     0.00866125682998     0.02096509093253
   11     0.00052700719645    -0.00028745601093    -0.01271465869629     0.02302466830559     0.03131266530856
   12     0.00081238467963    -0.00057339556421    -0.00913696841723     0.02006856408986     0.03548978483494
   13     0.00008355247538     0.00008252384107    -0.01183432294432     0.02392739712418     0.03248798810014

                 6                   7                   8                   9

    1    -0.02539297759793     0.02113730277211    -0.08607939521803     0.01938120730720
    2     0.02438058909007    -0.02552220222790     0.06285266345860    -0.01477895940365
    3    -0.00225209640992     0.00459981493685    -0.02996004456461    -0.00884322952787
    4     0.02808895070756     0.02522684172196    -0.00259822677516    -0.03034943196435
    5    -0.02018749350441    -0.02026445385379     0.00417226635965     0.02218597378146
    6    -0.00172628795550    -0.00316639796415    -0.00658761456678    -0.00164798620987
    7     0.00443353438610    -0.00067872442639     0.00627643601154    -0.00381607815467
    8     0.01134983156607     0.00566401217098     0.01555856001405    -0.00778949802105
    9    -0.00837783256202    -0.01360836148595     0.00923868012735     0.01343410317470
   10    -0.01129794492044     0.00302927059381    -0.02215988801482     0.00372507742145
   11    -0.01827041735691    -0.00262142366844    -0.02728868336826     0.01002450878775
   12    -0.02015738853329    -0.00702378015499    -0.02899938327576     0.01266405136826
   13    -0.01896320842261    -0.00937689174918    -0.02199740679532     0.01131295323980



  ## CPHF Coefficients for B(0) (Symmetry 0) ##
  Irrep: 1 Size: 13 x 9

                 1                   2                   3                   4                   5

    1     0.00000000010162     0.01343441872448     0.00000000000011     0.13639913575062    -0.00000000000057
    2     0.00922558090903    -0.00000000006979     0.02689959690172    -0.00000000000011     0.14655852926832
    3    -0.01222943611446     0.00000000009250    -0.07530671551804     0.00000000000008     0.52675275945080
    4     0.00000000007385     0.00974862640077     0.00000000000045     0.05084705444284    -0.00000000000060
    5     0.02318013896675    -0.00000000017534     0.08504233268247    -0.00000000000018    -0.08145795025679
    6     0.00714708150086    -0.00000000005402     0.02606930946001     0.00000000000016    -0.02478247720723
    7    -0.00000000027705    -0.03663197832377    -0.00000000000003    -0.14350013906978    -0.00000000000034
    8    -0.00000000005139    -0.00679088259758    -0.00000000000008    -0.00485492105503    -0.00000000000004
    9    -0.00629289126062     0.00000000004767    -0.01425090385487     0.00000000000025    -0.11492289577495
   10     0.00000000013920     0.01838532059987     0.00000000000042     0.05020784999047     0.00000000000046
   11    -0.03312035254725     0.00000000025060    -0.08894308537159     0.00000000000032    -0.04699768695364
   12     0.00000000005566     0.00735907838809     0.00000000000002     0.03229676061815    -0.00000000000006
   13    -0.00238670925802     0.00000000001805    -0.01202590668233     0.00000000000002     0.04080350714256

                 6                   7                   8                   9

    1    -0.28322323533427    -0.00000000000141    -0.85424712750819    -0.00000000000120
    2    -0.00000000000008     0.10010730761033     0.00000000000037    -0.30080388391205
    3    -0.00000000000029     0.46571704939870    -0.00000000000193    -0.00905185816125
    4    -0.14791151489509    -0.00000000000061    -0.20340379999832    -0.00000000000072
    5     0.00000000000073    -0.05825906702661     0.00000000000140    -0.11184468325729
    6    -0.00000000000012    -0.01238192172070    -0.00000000000018     0.01755636162633
    7    -0.04444035515977    -0.00000000000038    -0.08425684839508    -0.00000000000025
    8    -0.05964988792444    -0.00000000000013    -0.11220272734063    -0.00000000000013
    9     0.00000000000008    -0.13594895347655     0.00000000000055    -0.04822539865349
   10     0.03586365586432     0.00000000000059     0.03046617229903     0.00000000000041
   11     0.00000000000011    -0.07440219430438     0.00000000000048    -0.08540355326995
   12     0.00945241107295    -0.00000000000019    -0.08393448353206    -0.00000000000007
   13    -0.00000000000009     0.02923559190622    -0.00000000000002    -0.07590099411494



  ## CPHF Coefficients for B(1) (Symmetry 0) ##
  Irrep: 1 Size: 13 x 9

                 1                   2                   3                   4                   5

    1    -0.00000000000136    -0.00017933016571     0.00000000000000     0.00211728147718    -0.00000000000001
    2     0.00000035674306    -0.00000000000000    -0.00021884313144    -0.00000000000000    -0.01769334512587
    3     0.00012782915022    -0.00000000000097     0.00249468691536    -0.00000000000000    -0.00645716531153
    4     0.00000000000560     0.00074065458520    -0.00000000000001     0.00153454547285    -0.00000000000007
    5    -0.00113931097067     0.00000000000861    -0.00275226086597    -0.00000000000001    -0.01961947117755
    6    -0.00308076858205     0.00000000002330    -0.00662481353582     0.00000000000000    -0.01866637898462
    7     0.00000000001801     0.00238101148961    -0.00000000000000     0.00501756362723    -0.00000000000001
    8    -0.00000000001711    -0.00226231398786     0.00000000000001     0.00010685493691     0.00000000000000
    9     0.00123256813022    -0.00000000000933     0.00230138071295    -0.00000000000001     0.00229723964366
   10    -0.00000000000422    -0.00055754747249    -0.00000000000000    -0.00165337530321    -0.00000000000004
   11     0.00046904409720    -0.00000000000355    -0.00000978232042    -0.00000000000001     0.00891659977990
   12    -0.00000000000001    -0.00000132593020    -0.00000000000000    -0.00220771709840     0.00000000000001
   13     0.00001374467444    -0.00000000000010    -0.00030223329197    -0.00000000000000    -0.00023720975251

                 6                   7                   8                   9

    1     0.12415310696524    -0.00000000000041    -0.18000494018181    -0.00000000000027
    2     0.00000000000002    -0.04308128534011     0.00000000000005     0.18816961779604
    3    -0.00000000000010     0.02460568239981     0.00000000000017    -0.19955046655100
    4     0.07193700051430    -0.00000000000026    -0.06711821499949     0.00000000000032
    5    -0.00000000000029    -0.02122228197312     0.00000000000026     0.09504374390118
    6     0.00000000000005    -0.00503074997447    -0.00000000000009    -0.01093163728155
    7    -0.00371845022773     0.00000000000003     0.03224069591120     0.00000000000019
    8    -0.01347703842578    -0.00000000000003    -0.02516922664299    -0.00000000000006
    9     0.00000000000006    -0.00621027156024    -0.00000000000014     0.05626826476053
   10     0.01696331514548    -0.00000000000006    -0.02125065215409    -0.00000000000006
   11     0.00000000000006     0.00554882406484    -0.00000000000008    -0.02020344367451
   12    -0.00020112856862     0.00000000000002     0.00847840627779    -0.00000000000001
   13     0.00000000000002    -0.00331233265036    -0.00000000000001     0.01661959949085



  ## CPHF Coefficients for B(2) (Symmetry 0) ##
  Irrep: 1 Size: 13 x 9

                 1                   2                   3                   4                   5

    1    -0.00573569075667     0.00000000004338    -0.02898475924360    -0.00000000000002     0.11864225458733
    2    -0.00000000003969    -0.00524854245608     0.00000000000001    -0.01905113201275    -0.00000000000012
    3     0.00000000003914     0.00517457919117     0.00000000000003     0.07484972468208    -0.00000000000030
    4    -0.01578706878046     0.00000000011938    -0.05639761561830    -0.00000000000008     0.06509950401535
    5     0.00000000001347     0.00176832366655     0.00000000000033     0.00603676508638    -0.00000000000027
    6     0.00000000028446     0.03760628133358     0.00000000000020     0.15814599900378     0.00000000000014
    7    -0.01068438529607     0.00000000008083    -0.03872060755488     0.00000000000010     0.00122504640668
    8     0.03455934015871    -0.00000000026142     0.10953883005836    -0.00000000000018     0.02495397349946
    9    -0.00000000009829    -0.01299995022441     0.00000000000007    -0.06052909917505     0.00000000000003
   10    -0.00312995636124     0.00000000002363    -0.00556099441393    -0.00000000000007    -0.01391951567965
   11     0.00000000010026     0.01325966185876    -0.00000000000006     0.03301666528109    -0.00000000000002
   12    -0.00418355380877     0.00000000003164    -0.01544893231804     0.00000000000001     0.00595110076881
   13     0.00000000001026     0.00135660486356    -0.00000000000000     0.00411016951702    -0.00000000000001

                 6                   7                   8                   9

    1     0.00000000000031     0.07150680775863    -0.00000000000074     0.60408142895716
    2    -0.29751489287150     0.00000000000061     0.32922563642302     0.00000000000103
    3    -0.63391942953736     0.00000000000050     0.13016219169050     0.00000000000177
    4    -0.00000000000012     0.05334972422204     0.00000000000048     0.00554906473945
    5    -0.00304021204786     0.00000000000000     0.12670987822256     0.00000000000020
    6     0.09101007268382     0.00000000000024     0.01978164277892    -0.00000000000006
    7     0.00000000000018    -0.03714461519953     0.00000000000021     0.04154439548103
    8    -0.00000000000004     0.11989192586541    -0.00000000000034     0.06581109218096
    9     0.06875402694866     0.00000000000011     0.01490794200856    -0.00000000000003
   10    -0.00000000000017     0.00062402212328    -0.00000000000038     0.03159778495999
   11     0.00324636262015     0.00000000000010     0.08587858637403     0.00000000000023
   12     0.00000000000024    -0.03573256472287    -0.00000000000025     0.17737072526752
   13    -0.11325052123835     0.00000000000024     0.10208224013974     0.00000000000033



  ## AAT Electronic Component (Symmetry 0) ##
  Irrep: 1 Size: 12 x 3

                 1                   2                   3

    1    -0.28448956648669     0.22040684519860    -0.32198941231991
    2     0.17116426084633    -0.01064871302723    -0.14164294711523
    3    -0.31519402032816    -0.10953061561206     0.30341905173739
    4    -0.28448956648803     0.22040684519900     0.32198941231929
    5     0.17116426084661    -0.01064871302732     0.14164294711487
    6     0.31519402032916     0.10953061561228     0.30341905173881
    7     0.11379615124025    -0.23751222736699    -0.14708601921815
    8     0.07048034504246     0.00672140649595    -0.01490981702174
    9     0.30427408305916     0.11335547661569    -0.12157375772828
   10     0.11379615124045    -0.23751222736745     0.14708601921865
   11     0.07048034504300     0.00672140649595     0.01490981702217
   12    -0.30427408305990    -0.11335547661591    -0.12157375772840



  ## AAT Nuclear Component (Symmetry 0) ##
  Irrep: 1 Size: 12 x 3

                 1                   2                   3

    1    -0.00000000000000    -0.21892220766144    -0.00000000000000
    2     5.24887516457342    -0.00000000000000    -0.00000000000000
    3    -0.00000000000000    -0.00000000000000    -0.00000000000000
    4     0.00000000000000     0.21892220766144     0.00000000000000
    5    -5.24887516457342     0.00000000000000     0.00000000000000
    6    -0.00000000000000    -0.00000000000000    -0.00000000000000
    7     0.00000000000000     0.33117275159793     0.00000000000000
    8     0.86043541552651    -0.00000000000000    -0.00000000000000
    9     0.00000000000000     0.00000000000000     0.00000000000000
   10    -0.00000000000000    -0.33117275159793    -0.00000000000000
   11    -0.86043541552651     0.00000000000000     0.00000000000000
   12     0.00000000000000     0.00000000000000     0.00000000000000



  ## AAT Total (Symmetry 0) ##
  Irrep: 1 Size: 12 x 3

                 1                   2                   3

    1    -0.28448956648669     0.00148463753716    -0.32198941231991
    2     5.42003942541975    -0.01064871302723    -0.14164294711523
    3    -0.31519402032816    -0.10953061561206     0.30341905173739
    4    -0.28448956648803     0.43932905286044     0.32198941231929
    5    -5.07771090372681    -0.01064871302732     0.14164294711487
    6     0.31519402032916     0.10953061561228     0.30341905173881
    7     0.11379615124025     0.09366052423094    -0.14708601921815
    8     0.93091576056897     0.00672140649595    -0.01490981702174
    9     0.30427408305916     0.11335547661569    -0.12157375772828
   10     0.11379615124045    -0.56868497896538     0.14708601921865
   11    -0.78995507048350     0.00672140649595     0.01490981702217
   12    -0.30427408305990    -0.11335547661591    -0.12157375772840




    Psi4 stopped on: Saturday, 31 October 2020 03:45PM
    Psi4 wall time for execution: 0:00:02.69

*** Psi4 exiting successfully. Buy a developer a beer!
