
    -----------------------------------------------------------------------
          Psi4: An Open-Source Ab Initio Electronic Structure Package
                               Psi4 undefined 

                         Git: Rev {master} 91a87a5 dirty


    D. G. A. Smith, L. A. Burns, A. C. Simmonett, R. M. Parrish,
    M. C. Schieber, R. Galvelis, P. Kraus, H. Kruse, R. Di Remigio,
    A. Alenaizan, A. M. James, S. Lehtola, J. P. Misiewicz, M. Scheurer,
    R. A. Shaw, J. B. Schriber, Y. Xie, Z. L. Glick, D. A. Sirianni,
    J. S. O'Brien, J. M. Waldrop, A. Kumar, E. G. Hohenstein,
    B. P. Pritchard, B. R. Brooks, H. F. Schaefer III, A. Yu. Sokolov,
    K. Patkowski, A. E. DePrince III, U. Bozkaya, R. A. King,
    F. A. Evangelista, J. M. Turney, T. D. Crawford, C. D. Sherrill,
    J. Chem. Phys. 152(18) 184108 (2020). https://doi.org/10.1063/5.0006002

                            Additional Code Authors
    E. T. Seidl, C. L. Janssen, E. F. Valeev, M. L. Leininger,
    J. F. Gonthier, R. M. Richard, H. R. McAlexander, M. Saitow, X. Wang,
    P. Verma, and M. H. Lechner

             Previous Authors, Complete List of Code Contributors,
                       and Citations for Specific Modules
    https://github.com/psi4/psi4/blob/master/codemeta.json
    https://github.com/psi4/psi4/graphs/contributors
    http://psicode.org/psi4manual/master/introduction.html#citing-psifour

    -----------------------------------------------------------------------


    Psi4 started on: Sunday, 01 November 2020 02:07PM

    Process ID: 45610
    Host:       ganymede.local
    PSIDATADIR: /Users/crawdad/share/psi4
    Memory:     500.0 MiB
    Threads:    1
    
  ==> Input File <==

--------------------------------------------------------------------------
sys.path.insert(0, './../..')
import vcd

molecule h2o2 {
    O       0.0000000000        1.3192641900       -0.0952542913
    O      -0.0000000000       -1.3192641900       -0.0952542913
    H       1.6464858700        1.6841036400        0.7620343300
    H      -1.6464858700       -1.6841036400        0.7620343300
symmetry c1
units bohr
noreorient
no_com
}

set {
  basis sto-3g
  scf_type pk
  e_convergence 13
  d_convergence 13
}

gradient('mp2')
--------------------------------------------------------------------------

Scratch directory: /tmp/
gradient() will perform analytic gradient computation.

*** tstart() called on ganymede.local
*** at Sun Nov  1 14:07:01 2020

   => Loading Basis Set <=

    Name: STO-3G
    Role: ORBITAL
    Keyword: BASIS
    atoms 1-2 entry O          line    81 file /Users/crawdad/src/vcd/h2o2/sto-3g.gbs 
    atoms 3-4 entry H          line    19 file /Users/crawdad/src/vcd/h2o2/sto-3g.gbs 


         ---------------------------------------------------------
                                   SCF
               by Justin Turney, Rob Parrish, Andy Simmonett
                          and Daniel G. A. Smith
                              RHF Reference
                        1 Threads,    500 MiB Core
         ---------------------------------------------------------

  ==> Geometry <==

    Molecular point group: c1
    Full point group: C2

    Geometry (in Bohr), charge = 0, multiplicity = 1:

       Center              X                  Y                   Z               Mass       
    ------------   -----------------  -----------------  -----------------  -----------------
         O            0.000000000000     1.319264190000    -0.095254291300    15.994914619570
         O            0.000000000000    -1.319264190000    -0.095254291300    15.994914619570
         H            1.646485870000     1.684103640000     0.762034330000     1.007825032230
         H           -1.646485870000    -1.684103640000     0.762034330000     1.007825032230

  Running in c1 symmetry.

  Rotational constants: A =      9.44763  B =      0.94941  C =      0.90041 [cm^-1]
  Rotational constants: A = 283232.73347  B =  28462.56266  C =  26993.64278 [MHz]
  Nuclear repulsion =   37.457357686203032

  Charge       = 0
  Multiplicity = 1
  Electrons    = 18
  Nalpha       = 9
  Nbeta        = 9

  ==> Algorithm <==

  SCF Algorithm Type is PK.
  DIIS enabled.
  MOM disabled.
  Fractional occupation disabled.
  Guess Type is SAD.
  Energy threshold   = 1.00e-13
  Density threshold  = 1.00e-13
  Integral threshold = 0.00e+00

  ==> Primary Basis <==

  Basis Set: STO-3G
    Blend: STO-3G
    Number of shells: 8
    Number of basis function: 12
    Number of Cartesian functions: 12
    Spherical Harmonics?: true
    Max angular momentum: 1

  ==> Integral Setup <==

  Using in-core PK algorithm.
   Calculation information:
      Number of atoms:                   4
      Number of AO shells:               8
      Number of primitives:             24
      Number of atomic orbitals:        12
      Number of basis functions:        12

      Integral cutoff                 1.00e-12
      Number of threads:                 1

  Performing in-core PK
  Using 6162 doubles for integral storage.
  We computed 663 shell quartets total.
  Whereas there are 666 unique shell quartets.

  ==> DiskJK: Disk-Based J/K Matrices <==

    J tasked:                  Yes
    K tasked:                  Yes
    wK tasked:                  No
    Memory [MiB]:              375
    Schwarz Cutoff:          1E-12

    OpenMP threads:              1

  Minimum eigenvalue in the overlap matrix is 3.7855305150E-01.
  Reciprocal condition number of the overlap matrix is 2.0459599025E-01.
    Using symmetric orthogonalization.

  ==> Pre-Iterations <==

  SCF Guess: Superposition of Atomic Densities via on-the-fly atomic UHF (no occupation information).

   -------------------------
    Irrep   Nso     Nmo    
   -------------------------
     A         12      12 
   -------------------------
    Total      12      12
   -------------------------

  ==> Iterations <==

                        Total Energy        Delta E     RMS |[F,P]|

   @RHF iter SAD:  -147.33434496329357   -1.47334e+02   0.00000e+00 
   @RHF iter   1:  -148.72702106911322   -1.39268e+00   1.64563e-02 DIIS
   @RHF iter   2:  -148.76319557218511   -3.61745e-02   3.64725e-03 DIIS
   @RHF iter   3:  -148.76496588917263   -1.77032e-03   4.87738e-04 DIIS
   @RHF iter   4:  -148.76499583708593   -2.99479e-05   5.44383e-05 DIIS
   @RHF iter   5:  -148.76499654505631   -7.07970e-07   1.53082e-05 DIIS
   @RHF iter   6:  -148.76499661568573   -7.06294e-08   3.67318e-06 DIIS
   @RHF iter   7:  -148.76499662040615   -4.72042e-09   9.54093e-07 DIIS
   @RHF iter   8:  -148.76499662070901   -3.02862e-10   1.50689e-07 DIIS
   @RHF iter   9:  -148.76499662071507   -6.05382e-12   2.96251e-08 DIIS
   @RHF iter  10:  -148.76499662071515   -8.52651e-14   4.86846e-09 DIIS
   @RHF iter  11:  -148.76499662071515    0.00000e+00   1.02333e-09 DIIS
   @RHF iter  12:  -148.76499662071518   -2.84217e-14   5.32294e-11 DIIS
   @RHF iter  13:  -148.76499662071524   -5.68434e-14   1.21586e-11 DIIS
   @RHF iter  14:  -148.76499662071524    0.00000e+00   2.63855e-13 DIIS
   @RHF iter  15:  -148.76499662071524    0.00000e+00   6.50003e-14 DIIS
  Energy and wave function converged.


  ==> Post-Iterations <==

    Orbital Energies [Eh]
    ---------------------

    Doubly Occupied:                                                      

       1A    -20.317190     2A    -20.316404     3A     -1.409153  
       4A     -1.103616     5A     -0.598541     6A     -0.597718  
       7A     -0.501420     8A     -0.393043     9A     -0.348731  

    Virtual:                                                              

      10A      0.508968    11A      0.591802    12A      0.615185  

    Final Occupation by Irrep:
              A 
    DOCC [     9 ]

  @RHF Final Energy:  -148.76499662071524

   => Energetics <=

    Nuclear Repulsion Energy =             37.4573576862030322
    One-Electron Energy =                -281.2730773280524090
    Two-Electron Energy =                  95.0507230211341323
    Total Energy =                       -148.7649966207152374

Computation Completed


Properties will be evaluated at   0.000000,   0.000000,   0.000000 [a0]

Properties computed using the SCF density matrix

  Nuclear Dipole Moment: [e a0]
     X:     0.0000      Y:     0.0000      Z:    -0.0000

  Electronic Dipole Moment: [e a0]
     X:    -0.0000      Y:    -0.0000      Z:     0.5135

  Dipole Moment: [e a0]
     X:    -0.0000      Y:    -0.0000      Z:     0.5135     Total:     0.5135

  Dipole Moment: [D]
     X:    -0.0000      Y:    -0.0000      Z:     1.3052     Total:     1.3052


*** tstop() called on ganymede.local at Sun Nov  1 14:07:01 2020
Module time:
	user time   =       0.34 seconds =       0.01 minutes
	system time =       0.01 seconds =       0.00 minutes
	total time  =          0 seconds =       0.00 minutes
Total time:
	user time   =       0.34 seconds =       0.01 minutes
	system time =       0.01 seconds =       0.00 minutes
	total time  =          0 seconds =       0.00 minutes
 MINTS: Wrapper to libmints.
   by Justin Turney

   Calculation information:
      Number of threads:                 1
      Number of atoms:                   4
      Number of AO shells:               8
      Number of SO shells:               8
      Number of primitives:             24
      Number of atomic orbitals:        12
      Number of basis functions:        12

      Number of irreps:                  1
      Integral cutoff                 0.00e+00
      Number of functions per irrep: [  12 ]

 OEINTS: Overlap, kinetic, potential, dipole, and quadrupole integrals
         stored in file 35.

      Computing two-electron integrals...done
      Computed 2393 non-zero two-electron integrals.
        Stored in file 33.


Reading options from the VCD block
Calling plugin vcd.so.


	*************************
	*                       *
	*          VCD          *
	*                       *
	*************************

	Wave function  = SCF
	Dertype        = FIRST
	Presorting SO-basis two-electron integrals.
	Sorting File: SO Ints (nn|nn) nbuckets = 1
	Constructing frozen core operators
	Starting first half-transformation.
	Sorting half-transformed integrals.
	First half integral transformation complete.
	Starting second half-transformation.
	Two-electron integral transformation complete.

	Reference Wfn Parameters:
	---------------------------
	Number of irreps        = 1
	Number of MOs           = 12
	Number of active MOs    = 12
	Number of active occ    = 9
	Number of active vir    = 3
	Number of frozen occ    = 0
	Number of frozen vir    = 0

	Number of atoms         = 4
	RHF one-electron energy     =    -281.273077328052
	RHF two-electron energy     =      95.050723021134
	RHF total electronic energy =    -186.222354306918
	RHF total energy            =    -148.764996620715
  ## Nuclear Repulsion Energy 1st Derivatives (Symmetry 0) ##
  Irrep: 1 Size: 4 x 3

                 1                   2                   3

    1     1.64614797326821    -9.30779346406135     1.16875203711948
    2    -1.64614797326821     9.30779346406135     1.16875203711948
    3    -2.27618051558773    -1.00919166650640    -1.16875203711948
    4     2.27618051558773     1.00919166650640    -1.16875203711948



  ## Core Hamiltonian Gradient (Symmetry 0) ##
  Irrep: 1 Size: 4 x 3

                 1                   2                   3

    1    -4.22235795496333    19.43688627065470    -2.59341128541311
    2     4.22235795496337   -19.43688627065472    -2.59341128541311
    3     5.03366835439751     1.88610776030737     2.59341128541315
    4    -5.03366835439755    -1.88610776030737     2.59341128541315



  ## Overlap Gradient (Symmetry 0) ##
  Irrep: 1 Size: 4 x 3

                 1                   2                   3

    1     0.22362936673937    -0.27651651897729     0.10524836613879
    2    -0.22362936673937     0.27651651897729     0.10524836613879
    3    -0.19993640028463    -0.03097303997449    -0.10524836613879
    4     0.19993640028464     0.03097303997449    -0.10524836613879



  ## Coulomb Gradient (Symmetry 0) ##
  Irrep: 1 Size: 4 x 3

                 1                   2                   3

    1     2.66407132044723   -10.15697220641960     1.47650662165835
    2    -2.66407132044727    10.15697220641961     1.47650662165835
    3    -2.85996248537888    -0.91142422944833    -1.47650662165835
    4     2.85996248537892     0.91142422944833    -1.47650662165835



  ## Exchange Gradient (Symmetry 0) ##
  Irrep: 1 Size: 4 x 3

                 1                   2                   3

    1    -0.31149069959825     0.30439593043980    -0.15709573841052
    2     0.31149069959825    -0.30439593043980    -0.15709573841052
    3     0.30241104151998     0.06548117488820     0.15709573841052
    4    -0.30241104151999    -0.06548117488820     0.15709573841052



  ## RHF Gradient (Symmetry 0) ##
  Irrep: 1 Size: 4 x 3

                 1                   2                   3

    1     0.00000000589323     0.00000001163626     0.00000000109299
    2    -0.00000000589323    -0.00000001163627     0.00000000109299
    3    -0.00000000533374    -0.00000000073365    -0.00000000109295
    4     0.00000000533374     0.00000000073365    -0.00000000109295



  ## CPHF Coefficients for R(0, 0) (Symmetry 0) ##
  Irrep: 1 Size: 3 x 9

                 1                   2                   3                   4                   5

    1    -0.00097646003977    -0.00105624892937    -0.00179064796047     0.00365150466987    -0.20190222957906
    2    -0.00224121327267    -0.00243683218989    -0.01423763915198    -0.00134022212152    -0.04356174692845
    3    -0.00167625707274    -0.00231706598935     0.00097131316830    -0.00336035482746     0.03210420399832

                 6                   7                   8                   9

    1     0.00451754541251    -0.00180894240962    -0.05012917607922     0.12418442339332
    2    -0.03242959479245     0.04213574954217    -0.02621534010498     0.02729516179244
    3     0.00557571502323     0.02284150170148    -0.06352639956521     0.01204977444464



  ## CPHF Coefficients for R(0, 1) (Symmetry 0) ##
  Irrep: 1 Size: 3 x 9

                 1                   2                   3                   4                   5

    1     0.00468679200124    -0.00083069777769     0.00921952173657     0.08847793838618     0.09256890827046
    2    -0.00010973243800    -0.00062350285038    -0.01494931538138     0.00907301413161     0.02839059506777
    3    -0.00265395713095    -0.00045660554380    -0.00786327701789    -0.02962750250454     0.05764409350103

                 6                   7                   8                   9

    1    -0.03834239745400     0.03396094129360    -0.03740504867167    -0.02715345793562
    2    -0.03240306554766     0.11661215446966     0.00671146150795    -0.01316202203169
    3    -0.01685070766643     0.04721561659600     0.03391154495270    -0.05613111371716



  ## CPHF Coefficients for R(0, 2) (Symmetry 0) ##
  Irrep: 1 Size: 3 x 9

                 1                   2                   3                   4                   5

    1    -0.00048692094167    -0.00060900571288     0.00050846463815    -0.00483502630197    -0.00145263625600
    2    -0.00107823167968    -0.00130528558208     0.00169486433519    -0.00021203181827     0.00308860987673
    3    -0.00106461759648    -0.00107915182908    -0.01034565900457    -0.00235596781306     0.00916201709054

                 6                   7                   8                   9

    1    -0.14851193665594    -0.22685772228154     0.10906764352608    -0.05200979318815
    2    -0.04413076638694    -0.06905749523920     0.02926349454918    -0.09113662735542
    3     0.00793260984521     0.02570582506694     0.02154469579528    -0.10859485342998



  ## CPHF Coefficients for R(1, 0) (Symmetry 0) ##
  Irrep: 1 Size: 3 x 9

                 1                   2                   3                   4                   5

    1     0.00097646003980    -0.00105624892933    -0.00179064796047    -0.00365150466987     0.20190222957904
    2    -0.00224121327275     0.00243683218982     0.01423763915198    -0.00134022212152    -0.04356174692859
    3     0.00167625707282    -0.00231706598930     0.00097131316830     0.00336035482746    -0.03210420399833

                 6                   7                   8                   9

    1     0.00451754541325    -0.00180894240964    -0.05012917607920    -0.12418442339332
    2     0.03242959479229    -0.04213574954216     0.02621534010497     0.02729516179245
    3     0.00557571502311     0.02284150170148    -0.06352639956522    -0.01204977444465



  ## CPHF Coefficients for R(1, 1) (Symmetry 0) ##
  Irrep: 1 Size: 3 x 9

                 1                   2                   3                   4                   5

    1    -0.00468679200121    -0.00083069777784     0.00921952173657    -0.08847793838618    -0.09256890827031
    2    -0.00010973243802     0.00062350285038     0.01494931538138     0.00907301413162     0.02839059506764
    3     0.00265395713097    -0.00045660554371    -0.00786327701789     0.02962750250454    -0.05764409350097

                 6                   7                   8                   9

    1    -0.03834239745434     0.03396094129358    -0.03740504867167     0.02715345793562
    2     0.03240306554776    -0.11661215446966    -0.00671146150794    -0.01316202203168
    3    -0.01685070766664     0.04721561659603     0.03391154495269     0.05613111371716



  ## CPHF Coefficients for R(1, 2) (Symmetry 0) ##
  Irrep: 1 Size: 3 x 9

                 1                   2                   3                   4                   5

    1    -0.00048692094169     0.00060900571286    -0.00050846463815    -0.00483502630197    -0.00145263625654
    2     0.00107823167972    -0.00130528558204     0.00169486433520     0.00021203181827    -0.00308860987657
    3    -0.00106461759651     0.00107915182905     0.01034565900457    -0.00235596781306     0.00916201709057

                 6                   7                   8                   9

    1     0.14851193665593     0.22685772228153    -0.10906764352608    -0.05200979318817
    2    -0.04413076638697    -0.06905749523922     0.02926349454918     0.09113662735542
    3    -0.00793260984517    -0.02570582506693    -0.02154469579527    -0.10859485343000



  ## CPHF Coefficients for R(2, 0) (Symmetry 0) ##
  Irrep: 1 Size: 3 x 9

                 1                   2                   3                   4                   5

    1     0.00095441464187     0.00105624892937     0.00179064796047     0.00830537676098     0.02435577659611
    2     0.00224121327267     0.00243828220880    -0.00364665826209     0.00134022212152     0.04356174692851
    3     0.00211219006691     0.00231706598936    -0.00097131316830     0.00293405208769     0.03341003035157

                 6                   7                   8                   9

    1    -0.00451754541284     0.00180894240963     0.05012917607921    -0.00397388206538
    2     0.00500673259113    -0.02271732993525     0.08178860475860    -0.02729516179244
    3    -0.00557571502311    -0.02284150170148     0.06352639956521    -0.03069950801508



  ## CPHF Coefficients for R(2, 1) (Symmetry 0) ##
  Irrep: 1 Size: 3 x 9

                 1                   2                   3                   4                   5

    1     0.00056756905671     0.00083069777778    -0.00921952173657    -0.01962810342667     0.00720229237620
    2     0.00010973243800     0.00056800167697     0.00461501701697    -0.00907301413161    -0.02839059506775
    3     0.00006182709576     0.00045660554376     0.00786327701789     0.00140588668670    -0.03099979539451

                 6                   7                   8                   9

    1     0.03834239745418    -0.03396094129359     0.03740504867167     0.04040700856925
    2     0.02567052625207    -0.05331387320073    -0.02052225670077     0.01316202203168
    3     0.01685070766648    -0.04721561659601    -0.03391154495269     0.00309895544334



  ## CPHF Coefficients for R(2, 2) (Symmetry 0) ##
  Irrep: 1 Size: 3 x 9

                 1                   2                   3                   4                   5

    1     0.00048692094167     0.00054381262942     0.00051654978052     0.00483502630197     0.00145263625624
    2     0.00119359280299     0.00130528558208    -0.00169486433519     0.00018931064349    -0.00970707841474
    3     0.00106461759648     0.00118848158574    -0.00137718905858     0.00235596781306    -0.00916201709062

                 6                   7                   8                   9

    1     0.01441168344745     0.03518356418510    -0.00357730617255     0.05200979318816
    2     0.04413076638694     0.06905749523922    -0.02926349454918     0.11724198750306
    3     0.03509546531599     0.06664452268924    -0.03575775311436     0.10859485342998



  ## CPHF Coefficients for R(3, 0) (Symmetry 0) ##
  Irrep: 1 Size: 3 x 9

                 1                   2                   3                   4                   5

    1    -0.00095441464191     0.00105624892933     0.00179064796047    -0.00830537676098    -0.02435577659609
    2     0.00224121327275    -0.00243828220873     0.00364665826209     0.00134022212152     0.04356174692853
    3    -0.00211219006698     0.00231706598929    -0.00097131316830    -0.00293405208769    -0.03341003035156

                 6                   7                   8                   9

    1    -0.00451754541293     0.00180894240963     0.05012917607920     0.00397388206539
    2    -0.00500673259097     0.02271732993524    -0.08178860475859    -0.02729516179244
    3    -0.00557571502323    -0.02284150170148     0.06352639956522     0.03069950801509



  ## CPHF Coefficients for R(3, 1) (Symmetry 0) ##
  Irrep: 1 Size: 3 x 9

                 1                   2                   3                   4                   5

    1    -0.00056756905673     0.00083069777776    -0.00921952173657     0.01962810342667    -0.00720229237634
    2     0.00010973243802    -0.00056800167697    -0.00461501701696    -0.00907301413161    -0.02839059506765
    3    -0.00006182709578     0.00045660554376     0.00786327701789    -0.00140588668670     0.03099979539445

                 6                   7                   8                   9

    1     0.03834239745416    -0.03396094129358     0.03740504867168    -0.04040700856924
    2    -0.02567052625217     0.05331387320072     0.02052225670076     0.01316202203168
    3     0.01685070766659    -0.04721561659602    -0.03391154495269    -0.00309895544334



  ## CPHF Coefficients for R(3, 2) (Symmetry 0) ##
  Irrep: 1 Size: 3 x 9

                 1                   2                   3                   4                   5

    1     0.00048692094168    -0.00054381262940    -0.00051654978052     0.00483502630197     0.00145263625630
    2    -0.00119359280303     0.00130528558204    -0.00169486433519    -0.00018931064349     0.00970707841458
    3     0.00106461759651    -0.00118848158570     0.00137718905858     0.00235596781306    -0.00916201709049

                 6                   7                   8                   9

    1    -0.01441168344743    -0.03518356418509     0.00357730617254     0.05200979318815
    2     0.04413076638697     0.06905749523921    -0.02926349454917    -0.11724198750306
    3    -0.03509546531603    -0.06664452268925     0.03575775311436     0.10859485343001



  ## CPHF Coefficients for B(0) (Symmetry 0) ##
  Irrep: 1 Size: 3 x 9

                 1                   2                   3                   4                   5

    1    -0.00000000000005     0.00287480166345     0.00360133607255     0.00000000000000    -0.00000000000055
    2     0.01086420358133     0.00000000000017     0.00000000000000     0.04428193241039    -0.19688864956517
    3    -0.00000000000020     0.01264694106729     0.04295356614989    -0.00000000000000     0.00000000000053

                 6                   7                   8                   9

    1     0.29632240128901     0.45329634020234    -0.31656246233847    -0.00000000000007
    2    -0.00000000000040    -0.00000000000006     0.00000000000002    -0.41276200301082
    3    -0.28450439554823    -0.42194879571090    -0.14433366818743     0.00000000000005



  ## CPHF Coefficients for B(1) (Symmetry 0) ##
  Irrep: 1 Size: 3 x 9

                 1                   2                   3                   4                   5

    1     0.00000000000001    -0.00064810953124    -0.00251558182191    -0.00000000000000    -0.00000000000012
    2    -0.00164891009493    -0.00000000000003    -0.00000000000000    -0.00778161110385    -0.07303041443068
    3     0.00000000000002    -0.00136131990255    -0.00388896985176     0.00000000000000    -0.00000000000025

                 6                   7                   8                   9

    1     0.06562626029999     0.11686073316153    -0.10300161905044     0.00000000000003
    2    -0.00000000000012     0.00000000000003    -0.00000000000004     0.54603912871082
    3     0.14311617056021     0.26712638145625    -0.23632577461308    -0.00000000000006



  ## CPHF Coefficients for B(2) (Symmetry 0) ##
  Irrep: 1 Size: 3 x 9

                 1                   2                   3                   4                   5

    1    -0.00899750579707    -0.00000000000014    -0.00000000000001     0.01905638132983    -0.31989587137531
    2     0.00000000000036    -0.02283269705494    -0.07800295983837    -0.00000000000001    -0.00000000000029
    3    -0.01893135742567    -0.00000000000030     0.00000000000001    -0.09110749995086     0.60684145392084

                 6                   7                   8                   9

    1    -0.00000000000057     0.00000000000002     0.00000000000004     0.34683968384696
    2     0.19765745752804     0.17530984941099     0.77551326985248     0.00000000000002
    3     0.00000000000109    -0.00000000000002    -0.00000000000006     0.04434049591824



  Irrep: 1 Size: 4 x 3

                 1                   2                   3

    1     0.00000000000000     1.31926419000000    -0.09525429130000
    2     0.00000000000000    -1.31926419000000    -0.09525429130000
    3     1.64648587000000     1.68410364000000     0.76203433000000
    4    -1.64648587000000    -1.68410364000000     0.76203433000000



  ## AAT Electronic Component (Symmetry 0) ##
  Irrep: 1 Size: 12 x 3

                 1                   2                   3

    1    -0.16438926875952     0.08604465713785     0.62951110310103
    2    -0.09610918109984     0.00574249164134     0.11809387283854
    3    -0.44033529500823    -0.11635324380196     0.15601961907812
    4    -0.16438926875951     0.08604465713785    -0.62951110310103
    5    -0.09610918109985     0.00574249164135    -0.11809387283855
    6     0.44033529500823     0.11635324380196     0.15601961907811
    7    -0.11803348721070    -0.07736605236340     0.31376161064199
    8    -0.00291287601021     0.00350943924492    -0.04639939627333
    9    -0.16578564506241     0.21038189795917     0.12058353827169
   10    -0.11803348721069    -0.07736605236340    -0.31376161064198
   11    -0.00291287601020     0.00350943924492     0.04639939627333
   12     0.16578564506241    -0.21038189795917     0.12058353827168



  ## AAT Nuclear Component (Symmetry 0) ##
  Irrep: 1 Size: 12 x 3

                 1                   2                   3

    1     0.00000000000000    -0.19050858260000    -2.63852838000000
    2     0.19050858260000     0.00000000000000     0.00000000000000
    3     2.63852838000000     0.00000000000000     0.00000000000000
    4     0.00000000000000    -0.19050858260000     2.63852838000000
    5     0.19050858260000     0.00000000000000     0.00000000000000
    6    -2.63852838000000     0.00000000000000     0.00000000000000
    7     0.00000000000000     0.19050858250000    -0.42102591000000
    8    -0.19050858250000     0.00000000000000     0.41162146750000
    9     0.42102591000000    -0.41162146750000     0.00000000000000
   10     0.00000000000000     0.19050858250000     0.42102591000000
   11    -0.19050858250000     0.00000000000000    -0.41162146750000
   12    -0.42102591000000     0.41162146750000     0.00000000000000



  ## AAT Total (Symmetry 0) ##
  Irrep: 1 Size: 12 x 3

                 1                   2                   3

    1    -0.16438926875952    -0.10446392546215    -2.00901727689897
    2     0.09439940150016     0.00574249164134     0.11809387283854
    3     2.19819308499177    -0.11635324380196     0.15601961907812
    4    -0.16438926875951    -0.10446392546215     2.00901727689897
    5     0.09439940150015     0.00574249164135    -0.11809387283855
    6    -2.19819308499177     0.11635324380196     0.15601961907811
    7    -0.11803348721070     0.11314253013660    -0.10726429935801
    8    -0.19342145851021     0.00350943924492     0.36522207122667
    9     0.25524026493759    -0.20123956954083     0.12058353827169
   10    -0.11803348721069     0.11314253013660     0.10726429935802
   11    -0.19342145851020     0.00350943924492    -0.36522207122667
   12    -0.25524026493759     0.20123956954083     0.12058353827168



Electronic contribution to AAT in 10^6 T^-1 A^-1
  ## AAT Electronic Component (Symmetry 0) ##
  Irrep: 1 Size: 12 x 3

                 1                   2                   3

    1    -1.32162677814819     0.69176609792167     5.06102823668506
    2    -0.77268101699062     0.04616743406526     0.94942952089511
    3    -3.54012717276577    -0.93543552990693     1.25433799934817
    4    -1.32162677814809     0.69176609792162    -5.06102823668507
    5    -0.77268101699070     0.04616743406528    -0.94942952089515
    6     3.54012717276575     0.93543552990695     1.25433799934806
    7    -0.94894404356815    -0.62199343846869     2.52252321400604
    8    -0.02341840781680     0.02821454780701    -0.37303338026554
    9    -1.33285310896767     1.69138990688759     0.96944547771455
   10    -0.94894404356809    -0.62199343846869    -2.52252321400597
   11    -0.02341840781674     0.02821454780699     0.37303338026557
   12     1.33285310896769    -1.69138990688760     0.96944547771450




    Psi4 stopped on: Sunday, 01 November 2020 02:07PM
    Psi4 wall time for execution: 0:00:01.14

*** Psi4 exiting successfully. Buy a developer a beer!
