
    -----------------------------------------------------------------------
          Psi4: An Open-Source Ab Initio Electronic Structure Package
                               Psi4 1.4a2.dev1095 

                         Git: Rev {master} 33cf0b6 


    D. G. A. Smith, L. A. Burns, A. C. Simmonett, R. M. Parrish,
    M. C. Schieber, R. Galvelis, P. Kraus, H. Kruse, R. Di Remigio,
    A. Alenaizan, A. M. James, S. Lehtola, J. P. Misiewicz, M. Scheurer,
    R. A. Shaw, J. B. Schriber, Y. Xie, Z. L. Glick, D. A. Sirianni,
    J. S. O'Brien, J. M. Waldrop, A. Kumar, E. G. Hohenstein,
    B. P. Pritchard, B. R. Brooks, H. F. Schaefer III, A. Yu. Sokolov,
    K. Patkowski, A. E. DePrince III, U. Bozkaya, R. A. King,
    F. A. Evangelista, J. M. Turney, T. D. Crawford, C. D. Sherrill,
    J. Chem. Phys. 152(18) 184108 (2020). https://doi.org/10.1063/5.0006002

                            Additional Code Authors
    E. T. Seidl, C. L. Janssen, E. F. Valeev, M. L. Leininger,
    J. F. Gonthier, R. M. Richard, H. R. McAlexander, M. Saitow, X. Wang,
    P. Verma, and M. H. Lechner

             Previous Authors, Complete List of Code Contributors,
                       and Citations for Specific Modules
    https://github.com/psi4/psi4/blob/master/codemeta.json
    https://github.com/psi4/psi4/graphs/contributors
    http://psicode.org/psi4manual/master/introduction.html#citing-psifour

    -----------------------------------------------------------------------


    Psi4 started on: Saturday, 31 October 2020 09:46PM

    Process ID: 55574
    Host:       draco.local
    PSIDATADIR: /Users/crawdad/psi4/share/psi4
    Memory:     500.0 MiB
    Threads:    1
    
  ==> Input File <==

--------------------------------------------------------------------------
# PYTHONPATH must include directory above plugin directory.
#     Define either externally or here, then import plugin.
sys.path.insert(0, './../..')
import vcd

molecule ethylene_oxide {
O       0.0000000000        0.0000000000        1.6119363900
C       0.0000000000       -1.3813890400       -0.7062143040
C       0.0000000000        1.3813905700       -0.7062514120
H      -1.7489765900       -2.3794725300       -1.1019539000
H       1.7489765900       -2.3794725300       -1.1019539000
H       1.7489765900        2.3794634300       -1.1020178200
H      -1.7489765900        2.3794634300       -1.1020178200
symmetry c1
no_reorient
no_com
units bohr
}

set {
  basis 4-31g
  freeze_core false
  dertype none
  e_convergence 13
  r_convergence 13
  r_convergence 13
  scf_type pk
  print_mos true
}

gradient('mp2')
--------------------------------------------------------------------------

Scratch directory: /tmp/
gradient() will perform analytic gradient computation.

*** tstart() called on draco.local
*** at Sat Oct 31 21:46:08 2020

   => Loading Basis Set <=

    Name: 4-31G
    Role: ORBITAL
    Keyword: BASIS
    atoms 1   entry O          line    38 file /Users/crawdad/src/vcd/amos/4-31g.gbs 
    atoms 2-3 entry C          line    25 file /Users/crawdad/src/vcd/amos/4-31g.gbs 
    atoms 4-7 entry H          line    17 file /Users/crawdad/src/vcd/amos/4-31g.gbs 


         ---------------------------------------------------------
                                   SCF
               by Justin Turney, Rob Parrish, Andy Simmonett
                          and Daniel G. A. Smith
                              RHF Reference
                        1 Threads,    500 MiB Core
         ---------------------------------------------------------

  ==> Geometry <==

    Molecular point group: c1
    Full point group: Cs

    Geometry (in Bohr), charge = 0, multiplicity = 1:

       Center              X                  Y                   Z               Mass       
    ------------   -----------------  -----------------  -----------------  -----------------
         O            0.000000000000     0.000000000000     1.611936390000    15.994914619570
         C            0.000000000000    -1.381389040000    -0.706214304000    12.000000000000
         C            0.000000000000     1.381390570000    -0.706251412000    12.000000000000
         H           -1.748976590000    -2.379472530000    -1.101953900000     1.007825032230
         H            1.748976590000    -2.379472530000    -1.101953900000     1.007825032230
         H            1.748976590000     2.379463430000    -1.102017820000     1.007825032230
         H           -1.748976590000     2.379463430000    -1.102017820000     1.007825032230

  Running in c1 symmetry.

  Rotational constants: A =      0.85079  B =      0.74363  C =      0.47383 [cm^-1]
  Rotational constants: A =  25506.01012  B =  22293.46651  C =  14205.14003 [MHz]
  Nuclear repulsion =   75.369053384843525

  Charge       = 0
  Multiplicity = 1
  Electrons    = 24
  Nalpha       = 12
  Nbeta        = 12

  ==> Algorithm <==

  SCF Algorithm Type is PK.
  DIIS enabled.
  MOM disabled.
  Fractional occupation disabled.
  Guess Type is SAD.
  Energy threshold   = 1.00e-13
  Density threshold  = 1.00e-10
  Integral threshold = 0.00e+00

  ==> Primary Basis <==

  Basis Set: 4-31G
    Blend: 4-31G
    Number of shells: 23
    Number of basis function: 35
    Number of Cartesian functions: 35
    Spherical Harmonics?: false
    Max angular momentum: 1

  ==> Integral Setup <==

  Using in-core PK algorithm.
   Calculation information:
      Number of atoms:                   7
      Number of AO shells:              23
      Number of primitives:             52
      Number of atomic orbitals:        35
      Number of basis functions:        35

      Integral cutoff                 1.00e-12
      Number of threads:                 1

  Performing in-core PK
  Using 397530 doubles for integral storage.
  We computed 38174 shell quartets total.
  Whereas there are 38226 unique shell quartets.

  ==> DiskJK: Disk-Based J/K Matrices <==

    J tasked:                  Yes
    K tasked:                  Yes
    wK tasked:                  No
    Memory [MiB]:              375
    Schwarz Cutoff:          1E-12

    OpenMP threads:              1

  Minimum eigenvalue in the overlap matrix is 1.0404261904E-02.
  Reciprocal condition number of the overlap matrix is 2.1934359597E-03.
    Using symmetric orthogonalization.

  ==> Pre-Iterations <==

  SCF Guess: Superposition of Atomic Densities via on-the-fly atomic UHF (no occupation information).

   -------------------------
    Irrep   Nso     Nmo    
   -------------------------
     A         35      35 
   -------------------------
    Total      35      35
   -------------------------

  ==> Iterations <==

                        Total Energy        Delta E     RMS |[F,P]|

   @RHF iter SAD:  -152.15386780869892   -1.52154e+02   0.00000e+00 
   @RHF iter   1:  -152.58458638794849   -4.30719e-01   7.65183e-03 DIIS
   @RHF iter   2:  -152.61443033109100   -2.98439e-02   4.75071e-03 DIIS
   @RHF iter   3:  -152.62441707519383   -9.98674e-03   7.79081e-04 DIIS
   @RHF iter   4:  -152.62493862178169   -5.21547e-04   1.08714e-04 DIIS
   @RHF iter   5:  -152.62495172224249   -1.31005e-05   3.25799e-05 DIIS
   @RHF iter   6:  -152.62495280632783   -1.08409e-06   8.75308e-06 DIIS
   @RHF iter   7:  -152.62495291467053   -1.08343e-07   1.17670e-06 DIIS
   @RHF iter   8:  -152.62495291676990   -2.09937e-09   1.53519e-07 DIIS
   @RHF iter   9:  -152.62495291681509   -4.51905e-11   3.11886e-08 DIIS
   @RHF iter  10:  -152.62495291681668   -1.59162e-12   4.61863e-09 DIIS
   @RHF iter  11:  -152.62495291681697   -2.84217e-13   1.30689e-09 DIIS
   @RHF iter  12:  -152.62495291681694    2.84217e-14   2.40982e-10 DIIS
   @RHF iter  13:  -152.62495291681674    1.98952e-13   5.27087e-11 DIIS
   @RHF iter  14:  -152.62495291681697   -2.27374e-13   1.86372e-11 DIIS
   @RHF iter  15:  -152.62495291681677    1.98952e-13   3.08003e-12 DIIS
   @RHF iter  16:  -152.62495291681694   -1.70530e-13   3.17838e-13 DIIS
   @RHF iter  17:  -152.62495291681665    2.84217e-13   9.15151e-14 DIIS
   @RHF iter  18:  -152.62495291681691   -2.55795e-13   2.68374e-14 DIIS
   @RHF iter  19:  -152.62495291681691    0.00000e+00   1.23325e-14 DIIS
  Energy and wave function converged.


  ==> Post-Iterations <==

    Orbital Energies [Eh]
    ---------------------

    Doubly Occupied:                                                      

       1A    -20.538482     2A    -11.272392     3A    -11.271962  
       4A     -1.431790     5A     -0.936788     6A     -0.867470  
       7A     -0.717235     8A     -0.653646     9A     -0.549512  
      10A     -0.539827    11A     -0.450508    12A     -0.450131  

    Virtual:                                                              

      13A      0.242437    14A      0.273485    15A      0.278722  
      16A      0.303790    17A      0.304762    18A      0.358268  
      19A      0.466279    20A      0.762609    21A      0.863637  
      22A      0.876191    23A      0.878488    24A      0.954285  
      25A      1.029942    26A      1.137755    27A      1.172086  
      28A      1.209452    29A      1.265583    30A      1.373029  
      31A      1.387828    32A      1.427909    33A      1.457878  
      34A      1.790302    35A      2.156192  

    Final Occupation by Irrep:
              A 
    DOCC [    12 ]

  @RHF Final Energy:  -152.62495291681691

   => Energetics <=

    Nuclear Repulsion Energy =             75.3690533848435251
    One-Electron Energy =                -356.6285262997303676
    Two-Electron Energy =                 128.6345199980699192
    Total Energy =                       -152.6249529168169090

Computation Completed


Properties will be evaluated at   0.000000,   0.000000,   0.000000 [a0]

Properties computed using the SCF density matrix

  Nuclear Dipole Moment: [e a0]
     X:     0.0000      Y:    -0.0000      Z:     0.0128

  Electronic Dipole Moment: [e a0]
     X:    -0.0000      Y:     0.0000      Z:    -1.1398

  Dipole Moment: [e a0]
     X:    -0.0000      Y:    -0.0000      Z:    -1.1271     Total:     1.1271

  Dipole Moment: [D]
     X:    -0.0000      Y:    -0.0000      Z:    -2.8647     Total:     2.8647


  ==> Molecular Orbitals <==

                            1            2            3            4            5

 1    O1 s          0.9919872    0.0000839   -0.0000001    0.1825134    0.1220664
 2    O1 s          0.0526021    0.0003898   -0.0000002   -0.3598322   -0.2425136
 3    O1 px         0.0000000   -0.0000000   -0.0000000   -0.0000000    0.0000000
 4    O1 py        -0.0000000   -0.0000005   -0.0006475    0.0000029    0.0000039
 5    O1 pz        -0.0035982    0.0000054   -0.0000001    0.1300904   -0.1037669
 6    O1 s         -0.0313440    0.0028609   -0.0000025   -0.4738556   -0.4511901
 7    O1 px        -0.0000000    0.0000000   -0.0000000    0.0000000   -0.0000000
 8    O1 py         0.0000002    0.0000034    0.0044231    0.0000016    0.0000027
 9    O1 pz         0.0100001    0.0016962   -0.0000013    0.1085191   -0.0125063
 10   C2 s         -0.0000547    0.7018972   -0.7032185    0.0819337   -0.1214121
 11   C2 s         -0.0004829    0.0396406   -0.0430967   -0.1444104    0.2120570
 12   C2 px         0.0000000   -0.0000000    0.0000000    0.0000000    0.0000000
 13   C2 py         0.0003764    0.0000961   -0.0014056   -0.0852053    0.0518279
 14   C2 pz         0.0012343    0.0008614   -0.0005058   -0.0745447   -0.0906219
 15   C2 s          0.0080603   -0.0209491    0.0430336   -0.0554029    0.2772553
 16   C2 px        -0.0000000    0.0000000   -0.0000000   -0.0000000    0.0000000
 17   C2 py         0.0019092    0.0015199    0.0091988    0.0076878    0.0199467
 18   C2 pz         0.0047853   -0.0004158    0.0011259    0.0193665   -0.0246013
 19   C3 s         -0.0000547    0.7029844    0.7021316    0.0819312   -0.1214184
 20   C3 s         -0.0004829    0.0397071    0.0430352   -0.1444059    0.2120676
 21   C3 px        -0.0000000    0.0000000   -0.0000000   -0.0000000    0.0000000
 22   C3 py        -0.0003764   -0.0000983   -0.0014055    0.0852026   -0.0518257
 23   C3 pz         0.0012343    0.0008621    0.0005045   -0.0745420   -0.0906174
 24   C3 s          0.0080595   -0.0210154   -0.0430008   -0.0554034    0.2772680
 25   C3 px         0.0000000   -0.0000000    0.0000000   -0.0000000   -0.0000000
 26   C3 py        -0.0019088   -0.0015057    0.0092012   -0.0076867   -0.0199459
 27   C3 pz         0.0047850   -0.0004175   -0.0011253    0.0193651   -0.0246017
 28   H4 s         -0.0007106   -0.0010113   -0.0000178   -0.0240054    0.0927085
 29   H4 s         -0.0001454    0.0055781   -0.0050560    0.0037029    0.0223825
 30   H5 s         -0.0007106   -0.0010113   -0.0000178   -0.0240054    0.0927085
 31   H5 s         -0.0001454    0.0055781   -0.0050560    0.0037029    0.0223825
 32   H6 s         -0.0007105   -0.0010113    0.0000193   -0.0240047    0.0927140
 33   H6 s         -0.0001454    0.0055859    0.0050474    0.0037028    0.0223841
 34   H7 s         -0.0007105   -0.0010113    0.0000193   -0.0240047    0.0927140
 35   H7 s         -0.0001454    0.0055859    0.0050474    0.0037028    0.0223841

            Ene   -20.5384817  -11.2723920  -11.2719624   -1.4317904   -0.9367881
            Sym             A            A            A            A            A
            Occ             2            2            2            2            2


                            6            7            8            9           10

 1    O1 s         -0.0000041    0.0000000    0.0544217    0.0000000   -0.0000021
 2    O1 s          0.0000076   -0.0000000   -0.1200179   -0.0000000    0.0000043
 3    O1 px         0.0000000    0.2734454   -0.0000000    0.0000107    0.0000000
 4    O1 py         0.1855342   -0.0000000    0.0000014    0.0000000    0.4750447
 5    O1 pz         0.0000041   -0.0000000   -0.3076349   -0.0000000    0.0000147
 6    O1 s          0.0000170   -0.0000000   -0.1887086    0.0000000    0.0000085
 7    O1 px         0.0000000    0.1649775    0.0000000    0.0000078    0.0000000
 8    O1 py         0.0847868   -0.0000000    0.0000010    0.0000000    0.3303860
 9    O1 pz         0.0000001   -0.0000000   -0.2124308   -0.0000000    0.0000106
 10   C2 s          0.1283812    0.0000000    0.0082740    0.0000000   -0.0063753
 11   C2 s         -0.2118338    0.0000000    0.0099845    0.0000000    0.0248642
 12   C2 px         0.0000000    0.2795432   -0.0000000    0.3071213   -0.0000000
 13   C2 py         0.1114314    0.0000000    0.3089110   -0.0000000   -0.1020554
 14   C2 pz        -0.0301562    0.0000000    0.0871121   -0.0000000   -0.2314789
 15   C2 s         -0.3714009   -0.0000000   -0.0771123   -0.0000000   -0.0735872
 16   C2 px         0.0000000    0.1567097    0.0000000    0.2197317   -0.0000000
 17   C2 py         0.0064490    0.0000000    0.1178948   -0.0000000   -0.0955937
 18   C2 pz        -0.0104859    0.0000000    0.0042026   -0.0000000   -0.1492309
 19   C3 s         -0.1283767    0.0000000    0.0082747    0.0000000    0.0063749
 20   C3 s          0.2118251   -0.0000000    0.0099822    0.0000000   -0.0248669
 21   C3 px         0.0000000    0.2795393   -0.0000000   -0.3071302    0.0000000
 22   C3 py         0.1114312   -0.0000000   -0.3089080   -0.0000000   -0.1020646
 23   C3 pz         0.0301567    0.0000000    0.0871192    0.0000000    0.2314609
 24   C3 s          0.3713893   -0.0000000   -0.0771111   -0.0000000    0.0735944
 25   C3 px         0.0000000    0.1567065   -0.0000000   -0.2197355    0.0000000
 26   C3 py         0.0064489    0.0000000   -0.1178954   -0.0000000   -0.0956015
 27   C3 pz         0.0104873   -0.0000000    0.0042070    0.0000000    0.1492277
 28   H4 s         -0.1271875   -0.1270042   -0.1090699   -0.1896561    0.0881071
 29   H4 s         -0.0446758   -0.0590060   -0.0782352   -0.1307592    0.0664398
 30   H5 s         -0.1271875    0.1270042   -0.1090699    0.1896561    0.0881071
 31   H5 s         -0.0446758    0.0590060   -0.0782352    0.1307592    0.0664398
 32   H6 s          0.1271833    0.1270029   -0.1090706   -0.1896622   -0.0881091
 33   H6 s          0.0446747    0.0590058   -0.0782355   -0.1307644   -0.0664403
 34   H7 s          0.1271833   -0.1270029   -0.1090706    0.1896622   -0.0881091
 35   H7 s          0.0446747   -0.0590058   -0.0782355    0.1307644   -0.0664403

            Ene    -0.8674695   -0.7172352   -0.6536456   -0.5495120   -0.5398270
            Sym             A            A            A            A            A
            Occ             2            2            2            2            2


                           11           12           13           14           15

 1    O1 s          0.0000000    0.0378687    0.0027446   -0.0000043   -0.0000000
 2    O1 s         -0.0000000   -0.0991189   -0.0015352    0.0000046    0.0000000
 3    O1 px         0.5764629   -0.0000000   -0.0000000   -0.0000000    0.0967322
 4    O1 py        -0.0000000    0.0000162   -0.0000064    0.1948144    0.0000000
 5    O1 pz        -0.0000000   -0.3560551    0.0358597   -0.0000182   -0.0000000
 6    O1 s         -0.0000000   -0.0958416    0.0133472    0.0000601    0.0000000
 7    O1 px         0.4907669   -0.0000000   -0.0000000   -0.0000000    0.2479231
 8    O1 py        -0.0000000    0.0000130   -0.0000084    0.2995610    0.0000000
 9    O1 pz        -0.0000000   -0.3346516    0.0282767   -0.0000429   -0.0000000
 10   C2 s          0.0000000    0.0065771   -0.0864871    0.0841281   -0.0000000
 11   C2 s          0.0000000    0.0086996    0.0632049   -0.0347732   -0.0000000
 12   C2 px        -0.1373148    0.0000000    0.0000000    0.0000000   -0.2470456
 13   C2 py        -0.0000000   -0.2297120   -0.1156451   -0.0780663   -0.0000000
 14   C2 pz         0.0000000    0.2574858   -0.0366929    0.2345858    0.0000000
 15   C2 s         -0.0000000   -0.0861028    1.3437857   -1.3460293    0.0000000
 16   C2 px        -0.0501706    0.0000000    0.0000000    0.0000000   -0.8386171
 17   C2 py        -0.0000000   -0.1752593   -0.5191020   -0.3418180    0.0000000
 18   C2 pz         0.0000000    0.1387195   -0.1476281    0.6659513    0.0000000
 19   C3 s          0.0000000    0.0065773   -0.0864880   -0.0841244   -0.0000000
 20   C3 s          0.0000000    0.0086977    0.0632071    0.0347698    0.0000000
 21   C3 px        -0.1373028    0.0000000    0.0000000    0.0000000   -0.2470470
 22   C3 py         0.0000000    0.2297142    0.1156486   -0.0780562    0.0000000
 23   C3 pz         0.0000000    0.2574971   -0.0366830   -0.2345993   -0.0000000
 24   C3 s         -0.0000000   -0.0860920    1.3437900    1.3460186    0.0000000
 25   C3 px        -0.0501598    0.0000000   -0.0000000    0.0000000   -0.8386208
 26   C3 py         0.0000000    0.1752566    0.5191129   -0.3417870    0.0000000
 27   C3 pz         0.0000000    0.1387322   -0.1476142   -0.6660191   -0.0000000
 28   H4 s          0.1126426    0.0476987   -0.0236354    0.0163194   -0.0322237
 29   H4 s          0.1179421    0.0395121   -0.9350583    0.5848023   -1.0592469
 30   H5 s         -0.1126426    0.0476987   -0.0236354    0.0163194    0.0322237
 31   H5 s         -0.1179421    0.0395121   -0.9350583    0.5848023    1.0592469
 32   H6 s         -0.1126332    0.0476930   -0.0236355   -0.0163201    0.0322239
 33   H6 s         -0.1179342    0.0395079   -0.9350656   -0.5848281    1.0592536
 34   H7 s          0.1126332    0.0476930   -0.0236355   -0.0163201   -0.0322239
 35   H7 s          0.1179342    0.0395079   -0.9350656   -0.5848281   -1.0592536

            Ene    -0.4505084   -0.4501308    0.2424368    0.2734850    0.2787216
            Sym             A            A            A            A            A
            Occ             2            2            0            0            0


                           16           17           18           19           20

 1    O1 s          0.0983539    0.0003250   -0.0000000    0.0000023    0.0181176
 2    O1 s         -0.1013227   -0.0003336    0.0000000    0.0000001   -0.1518618
 3    O1 px         0.0000000    0.0000000   -0.0000009   -0.0000000    0.0000000
 4    O1 py        -0.0008654    0.2633284    0.0000000    0.1883676   -0.0000001
 5    O1 pz         0.3214036    0.0010575   -0.0000000    0.0000041    0.1778304
 6    O1 s         -1.4376920   -0.0047628    0.0000000   -0.0000683    0.7046033
 7    O1 px         0.0000000    0.0000000   -0.0000061   -0.0000000   -0.0000000
 8    O1 py        -0.0016166    0.4934189   -0.0000000    0.6600285    0.0000174
 9    O1 pz         0.8488701    0.0028028   -0.0000000    0.0000281   -0.1827417
 10   C2 s         -0.0587380   -0.0769721    0.0000000   -0.0905873    0.0098078
 11   C2 s          0.0415911    0.0665803   -0.0000000    0.0327250    0.1510815
 12   C2 px         0.0000000   -0.0000000    0.2510539    0.0000000   -0.0000000
 13   C2 py         0.1087363   -0.1691995    0.0000000    0.1880711    0.6175871
 14   C2 pz         0.1285392    0.1491340   -0.0000000    0.1305195    0.1716484
 15   C2 s          0.5367664    1.0458243   -0.0000000    2.0487145    0.2152887
 16   C2 px         0.0000000   -0.0000000    1.3776479    0.0000000    0.0000000
 17   C2 py         0.3410441   -0.5465959    0.0000000    2.1496374   -1.0586777
 18   C2 pz         0.8178792    0.3569585   -0.0000000    0.5920923   -0.3485126
 19   C3 s         -0.0592565    0.0765803    0.0000000    0.0905840    0.0098080
 20   C3 s          0.0420402   -0.0663045   -0.0000000   -0.0327258    0.1510851
 21   C3 px        -0.0000000   -0.0000000   -0.2510518    0.0000000   -0.0000000
 22   C3 py        -0.1076367   -0.1699102   -0.0000000    0.1880677   -0.6175947
 23   C3 pz         0.1295102   -0.1482854   -0.0000000   -0.1305302    0.1716761
 24   C3 s          0.5437977   -1.0422024   -0.0000000   -2.0486547    0.2152546
 25   C3 px        -0.0000000   -0.0000000   -1.3776406    0.0000000   -0.0000000
 26   C3 py        -0.3375054   -0.5488273   -0.0000000    2.1496036    1.0587164
 27   C3 pz         0.8201426   -0.3515311   -0.0000000   -0.5920866   -0.3485773
 28   H4 s          0.0202840   -0.0067683   -0.0094380    0.0923880   -0.2143632
 29   H4 s          0.0051167   -0.8117627    1.3379321    0.4042116   -0.0672342
 30   H5 s          0.0202840   -0.0067683    0.0094380    0.0923880   -0.2143632
 31   H5 s          0.0051167   -0.8117627   -1.3379321    0.4042116   -0.0672342
 32   H6 s          0.0202379    0.0069044   -0.0094377   -0.0923820   -0.2143742
 33   H6 s         -0.0002747    0.8117473    1.3379243   -0.4042218   -0.0672385
 34   H7 s          0.0202379    0.0069044    0.0094377   -0.0923820   -0.2143742
 35   H7 s         -0.0002747    0.8117473   -1.3379243   -0.4042218   -0.0672385

            Ene     0.3037903    0.3047616    0.3582675    0.4662786    0.7626093
            Sym             A            A            A            A            A
            Occ             0            0            0            0            0


                           21           22           23           24           25

 1    O1 s         -0.0000021    0.0000000    0.0326793    0.0000014    0.0343623
 2    O1 s          0.0000258   -0.0000000   -0.2238135   -0.0000052   -0.2146578
 3    O1 px        -0.0000000    0.2588700   -0.0000000    0.0000000    0.0000000
 4    O1 py         0.1072258    0.0000000    0.0000151    0.2053208    0.0000009
 5    O1 pz        -0.0000391    0.0000000    0.3067001    0.0000075   -0.2806654
 6    O1 s         -0.0000561    0.0000000    0.4074467    0.0000043   -0.4386398
 7    O1 px        -0.0000000    0.1641558   -0.0000000   -0.0000000   -0.0000000
 8    O1 py        -0.2256284   -0.0000000   -0.0000219    0.1065021    0.0000043
 9    O1 pz         0.0000160    0.0000000    0.0464696    0.0000059    0.3913783
 10   C2 s         -0.0216096   -0.0000000   -0.0257020   -0.0635517   -0.0558948
 11   C2 s          0.2087438    0.0000000    0.0551823    0.2507663   -0.5091962
 12   C2 px        -0.0000000    0.3737863   -0.0000000   -0.0000000   -0.0000000
 13   C2 py         0.1843099   -0.0000000   -0.2277986    0.6865211   -0.2632415
 14   C2 pz         0.7278433    0.0000000    0.7302512   -0.2805283   -0.1533100
 15   C2 s         -0.5489457   -0.0000000   -0.1035653   -0.4411740    0.9206630
 16   C2 px         0.0000000   -0.9152053    0.0000000    0.0000000    0.0000000
 17   C2 py        -0.6032851   -0.0000000    0.2668521   -1.0167101    0.0846729
 18   C2 pz        -1.1226893   -0.0000000   -0.5972422    0.3676548    0.2396307
 19   C3 s          0.0216160   -0.0000000   -0.0256972    0.0635515   -0.0558940
 20   C3 s         -0.2087487   -0.0000000    0.0551262   -0.2507466   -0.5092128
 21   C3 px        -0.0000000    0.3737910   -0.0000000    0.0000000    0.0000000
 22   C3 py         0.1842107    0.0000000    0.2278410    0.6865213    0.2632576
 23   C3 pz        -0.7280399    0.0000000    0.7300278    0.2805529   -0.1533079
 24   C3 s          0.5489889    0.0000000   -0.1034504    0.4411654    0.9206816
 25   C3 px         0.0000000   -0.9152186    0.0000000   -0.0000000   -0.0000000
 26   C3 py        -0.6031670   -0.0000000   -0.2669658   -1.0167151   -0.0846930
 27   C3 pz         1.1228736    0.0000000   -0.5969269   -0.3676556    0.2396058
 28   H4 s         -0.1600112   -0.4676225   -0.0845624   -0.2763401   -0.5527756
 29   H4 s         -0.0599707   -0.1101881    0.0350565   -0.0318399    0.1111062
 30   H5 s         -0.1600112    0.4676225   -0.0845624   -0.2763401   -0.5527756
 31   H5 s         -0.0599707    0.1101881    0.0350565   -0.0318399    0.1111062
 32   H6 s          0.1600278    0.4676286   -0.0845348    0.2763479   -0.5527759
 33   H6 s          0.0599609    0.1101882    0.0350690    0.0318344    0.1111086
 34   H7 s          0.1600278   -0.4676286   -0.0845348    0.2763479   -0.5527759
 35   H7 s          0.0599609   -0.1101882    0.0350690    0.0318344    0.1111086

            Ene     0.8636372    0.8761905    0.8784878    0.9542847    1.0299425
            Sym             A            A            A            A            A
            Occ             0            0            0            0            0


                           26           27           28           29           30

 1    O1 s          0.0000000   -0.0000000    0.0000002    0.0361762    0.0000000
 2    O1 s         -0.0000000    0.0000000   -0.0000039   -0.2110324   -0.0000000
 3    O1 px        -0.0000033    0.2327090   -0.0000000   -0.0000000    0.9176452
 4    O1 py        -0.0000000   -0.0000000    0.2518736   -0.0000072    0.0000000
 5    O1 pz        -0.0000000    0.0000000    0.0000013   -0.5008682   -0.0000000
 6    O1 s          0.0000000    0.0000000    0.0000061   -0.3244600   -0.0000000
 7    O1 px         0.0000098   -0.4521819    0.0000000    0.0000000   -1.2302055
 8    O1 py         0.0000000   -0.0000000   -0.2753506    0.0000095   -0.0000000
 9    O1 pz        -0.0000000   -0.0000000   -0.0000047    0.8341509    0.0000000
 10   C2 s          0.0000000    0.0000000   -0.0382936    0.0064093   -0.0000000
 11   C2 s          0.0000000    0.0000000    0.3103674   -0.9802230   -0.0000000
 12   C2 px         0.8761815   -0.7565584    0.0000000    0.0000000    0.1022070
 13   C2 py         0.0000000   -0.0000000   -0.5779017    0.2263374    0.0000000
 14   C2 pz        -0.0000000    0.0000000   -0.1255830    0.2450806    0.0000000
 15   C2 s         -0.0000000   -0.0000000   -0.0628930    1.7749565    0.0000000
 16   C2 px        -2.0606953    1.0896479   -0.0000000   -0.0000000    0.2994764
 17   C2 py        -0.0000000    0.0000000    1.1716080   -0.2152210    0.0000000
 18   C2 pz        -0.0000000    0.0000000    0.0824960   -0.0641518   -0.0000000
 19   C3 s         -0.0000000    0.0000000    0.0382926    0.0064078    0.0000000
 20   C3 s          0.0000000   -0.0000000   -0.3103639   -0.9802374    0.0000000
 21   C3 px        -0.8761722   -0.7565679   -0.0000000   -0.0000000    0.1022051
 22   C3 py         0.0000000   -0.0000000   -0.5778953   -0.2263426   -0.0000000
 23   C3 pz        -0.0000000    0.0000000    0.1255964    0.2450898   -0.0000000
 24   C3 s         -0.0000000    0.0000000    0.0628823    1.7749602   -0.0000000
 25   C3 px         2.0606746    1.0896662    0.0000000    0.0000000    0.2994464
 26   C3 py        -0.0000000    0.0000000    1.1716038    0.2152384    0.0000000
 27   C3 pz         0.0000000   -0.0000000   -0.0825272   -0.0641716    0.0000000
 28   H4 s          0.2064514   -0.4108952   -0.5191965    0.2776672    0.2550633
 29   H4 s         -1.1433328    0.9432594    0.7898136   -0.6746456   -0.0851607
 30   H5 s         -0.2064514    0.4108952   -0.5191965    0.2776672   -0.2550633
 31   H5 s          1.1433328   -0.9432594    0.7898136   -0.6746456    0.0851607
 32   H6 s          0.2064504    0.4108963    0.5191900    0.2776699   -0.2550508
 33   H6 s         -1.1433206   -0.9432704   -0.7898077   -0.6746576    0.0851598
 34   H7 s         -0.2064504   -0.4108963    0.5191900    0.2776699    0.2550508
 35   H7 s          1.1433206    0.9432704   -0.7898077   -0.6746576   -0.0851598

            Ene     1.1377553    1.1720862    1.2094519    1.2655827    1.3730293
            Sym             A            A            A            A            A
            Occ             0            0            0            0            0


                           31           32           33           34           35

 1    O1 s          0.0000000   -0.0000018    0.0302244   -0.0000005    0.0238447
 2    O1 s         -0.0000000    0.0000157   -0.3935232    0.0000185   -1.8185903
 3    O1 px         0.0000086   -0.0000000    0.0000000   -0.0000000   -0.0000000
 4    O1 py         0.0000000    0.8130199    0.0000340    0.5103017    0.0000072
 5    O1 pz        -0.0000000    0.0000287   -0.7017049   -0.0000130    0.3849553
 6    O1 s          0.0000000   -0.0000366    0.8014495    0.0000162    3.2853407
 7    O1 px         0.0000035    0.0000000   -0.0000000    0.0000000   -0.0000000
 8    O1 py        -0.0000000   -0.9681646   -0.0000321   -1.6236956   -0.0000490
 9    O1 pz         0.0000000   -0.0000357    0.8076261    0.0000223   -1.4984419
 10   C2 s          0.0000000   -0.0303380    0.0492129    0.1198645    0.0270613
 11   C2 s          0.0000000   -0.9580063    1.1153624    1.5116929   -0.0111004
 12   C2 px         0.1494704   -0.0000000   -0.0000000    0.0000000   -0.0000000
 13   C2 py         0.0000000    0.0499846    0.0070268   -0.0041743   -0.0945827
 14   C2 pz         0.0000000    0.0562056    0.0781869   -0.0237992   -0.3341525
 15   C2 s          0.0000000    2.0230982   -1.4917099   -5.1859941   -1.0598491
 16   C2 px        -1.9378093    0.0000000    0.0000000   -0.0000000    0.0000000
 17   C2 py         0.0000000    0.4655763    0.1709548   -1.4764259   -0.2124714
 18   C2 pz        -0.0000000   -0.4297867   -0.1380786   -0.5345084   -0.5106665
 19   C3 s          0.0000000    0.0303315    0.0492153   -0.1198628    0.0270598
 20   C3 s          0.0000000    0.9578752    1.1154906   -1.5116570   -0.0111375
 21   C3 px        -0.1494618   -0.0000000    0.0000000    0.0000000    0.0000000
 22   C3 py        -0.0000000    0.0499794   -0.0070311   -0.0041791    0.0945786
 23   C3 pz         0.0000000   -0.0562077    0.0781888    0.0238038   -0.3341507
 24   C3 s         -0.0000000   -2.0229233   -1.4920038    5.1859241   -1.0596234
 25   C3 px         1.9377888   -0.0000000   -0.0000000   -0.0000000   -0.0000000
 26   C3 py         0.0000000    0.4656056   -0.1708747   -1.4764325    0.2123922
 27   C3 pz        -0.0000000    0.4297840   -0.1380352    0.5345359   -0.5106190
 28   H4 s         -0.7370069    0.0432715   -0.0053899    0.3826870    0.1461019
 29   H4 s         -0.3129976   -0.3987715    0.4398683    0.2781595    0.0147016
 30   H5 s          0.7370069    0.0432715   -0.0053899    0.3826870    0.1461019
 31   H5 s          0.3129976   -0.3987715    0.4398683    0.2781595    0.0147016
 32   H6 s         -0.7370052   -0.0432707   -0.0053921   -0.3826817    0.1460860
 33   H6 s         -0.3129865    0.3987177    0.4399135   -0.2781427    0.0146975
 34   H7 s          0.7370052   -0.0432707   -0.0053921   -0.3826817    0.1460860
 35   H7 s          0.3129865    0.3987177    0.4399135   -0.2781427    0.0146975

            Ene     1.3878285    1.4279087    1.4578784    1.7903018    2.1561917
            Sym             A            A            A            A            A
            Occ             0            0            0            0            0



*** tstop() called on draco.local at Sat Oct 31 21:46:09 2020
Module time:
	user time   =       0.55 seconds =       0.01 minutes
	system time =       0.02 seconds =       0.00 minutes
	total time  =          1 seconds =       0.02 minutes
Total time:
	user time   =       0.55 seconds =       0.01 minutes
	system time =       0.02 seconds =       0.00 minutes
	total time  =          1 seconds =       0.02 minutes
 MINTS: Wrapper to libmints.
   by Justin Turney

   Calculation information:
      Number of threads:                 1
      Number of atoms:                   7
      Number of AO shells:              23
      Number of SO shells:              23
      Number of primitives:             52
      Number of atomic orbitals:        35
      Number of basis functions:        35

      Number of irreps:                  1
      Integral cutoff                 0.00e+00
      Number of functions per irrep: [  35 ]

 OEINTS: Overlap, kinetic, potential, dipole, and quadrupole integrals
         stored in file 35.

      Computing two-electron integrals...done
      Computed 165402 non-zero two-electron integrals.
        Stored in file 33.


Reading options from the VCD block
Calling plugin vcd.so.


	*************************
	*                       *
	*          VCD          *
	*                       *
	*************************

	Wave function  = SCF
	Dertype        = FIRST
	Presorting SO-basis two-electron integrals.
	Sorting File: SO Ints (nn|nn) nbuckets = 1
	Constructing frozen core operators
	Starting first half-transformation.
	Sorting half-transformed integrals.
	First half integral transformation complete.
	Starting second half-transformation.
	Two-electron integral transformation complete.

	Reference Wfn Parameters:
	---------------------------
	Number of irreps        = 1
	Number of MOs           = 35
	Number of active MOs    = 35
	Number of active occ    = 12
	Number of active vir    = 23
	Number of frozen occ    = 0
	Number of frozen vir    = 0

	Number of atoms         = 7
	RHF one-electron energy     =    -356.628526299731
	RHF two-electron energy     =     128.634519998071
	RHF total electronic energy =    -227.994006301660
	RHF total energy            =    -152.624952916817
  ## Nuclear Repulsion Energy 1st Derivatives (Symmetry 0) ##
  Irrep: 1 Size: 7 x 3

                 1                   2                   3

    1     0.00000000000000    -0.00013774104363   -12.67078791104711
    2     0.00000000000000     7.32891883456315     5.04726340885114
    3     0.00000000000000    -7.32881658158878     5.04725468694175
    4     1.67474876347260     1.36712599495097     0.64405385535441
    5    -1.67474876347260     1.36712599495097     0.64405385535441
    6    -1.67474262181064    -1.36710825091634     0.64408105227270
    7     1.67474262181064    -1.36710825091634     0.64408105227270



  ## Core Hamiltonian Gradient (Symmetry 0) ##
  Irrep: 1 Size: 7 x 3

                 1                   2                   3

    1     0.00000000000002     0.00011463009350    22.54045482073633
    2     0.00000000000017   -11.67915236614954    -8.36176581370999
    3    -0.00000000000002    11.67909827416413    -8.36183133042082
    4    -4.56303716699003    -3.17833417328351    -1.45416310508167
    5     4.56303716698987    -3.17833417328338    -1.45416310508167
    6     4.56302621408729     3.17830390422967    -1.45426573322129
    7    -4.56302621408730     3.17830390422967    -1.45426573322134



  ## Overlap Gradient (Symmetry 0) ##
  Irrep: 1 Size: 7 x 3

                 1                   2                   3

    1    -0.00000000000000    -0.00000192921556    -0.28220415186339
    2    -0.00000000000001     0.01823007973076     0.06268601871789
    3     0.00000000000000    -0.01822888020532     0.06267766675458
    4     0.19606915756476     0.10083111846313     0.03920776752721
    5    -0.19606915756474     0.10083111846311     0.03920776752722
    6    -0.19606954081787    -0.10083075361807     0.03921246566824
    7     0.19606954081787    -0.10083075361806     0.03921246566825



  ## Coulomb Gradient (Symmetry 0) ##
  Irrep: 1 Size: 7 x 3

                 1                   2                   3

    1    -0.00000000000001     0.00002283976853    -9.84504711588914
    2    -0.00000000000017     4.27821525548086     3.26642363244408
    3     0.00000000000002    -4.27826462046210     3.26649839134305
    4     2.95827312428483     1.85519543553660     0.82799335300354
    5    -2.95827312428468     1.85519543553647     0.82799335300354
    6    -2.95826826062636    -1.85518217293018     0.82806919304743
    7     2.95826826062637    -1.85518217293018     0.82806919304748



  ## Exchange Gradient (Symmetry 0) ##
  Irrep: 1 Size: 7 x 3

                 1                   2                   3

    1     0.00000000000000    -0.00000451447767     0.22967513309047
    2     0.00000000000002     0.07006123336329     0.00194763343735
    3    -0.00000000000000    -0.07005542882341     0.00195051404347
    4    -0.27777074059899    -0.14841575690107    -0.05838982170041
    5     0.27777074059897    -0.14841575690106    -0.05838982170040
    6     0.27777101483355     0.14841511186997    -0.05839681858524
    7    -0.27777101483355     0.14841511186996    -0.05839681858524



  ## RHF Gradient (Symmetry 0) ##
  Irrep: 1 Size: 7 x 3

                 1                   2                   3

    1    -0.00000000000000    -0.00000671487482    -0.02790922497283
    2     0.00000000000001     0.01627303698851     0.01655487974047
    3    -0.00000000000000    -0.01626723691547     0.01654992866202
    4    -0.01171686226682    -0.00359738123389    -0.00129795089691
    5     0.01171686226682    -0.00359738123388    -0.00129795089691
    6     0.01171680566597     0.00359783863504    -0.00129984081816
    7    -0.01171680566597     0.00359783863505    -0.00129984081816



  ## CPHF Coefficients for R(0, 0) (Symmetry 0) ##
  Irrep: 1 Size: 23 x 12

                 1                   2                   3                   4                   5

    1     0.00000000000000     0.00000000000000     0.00000000000000    -0.00000000000001    -0.00000000000000
    2    -0.00000000000000     0.00000000000000    -0.00000000000000    -0.00000000000000    -0.00000000000000
    3    -0.00075732112726     0.00003091142189    -0.00000002030789     0.02277762255058     0.00353133715559
    4    -0.00000000000000    -0.00000000000000     0.00000000000000     0.00000000000000     0.00000000000000
    5    -0.00000000000000     0.00000000000000    -0.00000000000000     0.00000000000000     0.00000000000000
    6    -0.00000001889306     0.00000019536208     0.00024712473814    -0.00000089598529    -0.00000047842873
    7    -0.00000000000000     0.00000000000000    -0.00000000000000    -0.00000000000000    -0.00000000000000
    8     0.00000000000000     0.00000000000000    -0.00000000000000     0.00000000000000     0.00000000000000
    9     0.00000000000000    -0.00000000000000     0.00000000000000     0.00000000000001     0.00000000000001
   10    -0.00337379534248     0.00049646779858    -0.00000041529097    -0.01604113469013    -0.01547729407205
   11     0.00000000000000    -0.00000000000000     0.00000000000000     0.00000000000001     0.00000000000001
   12    -0.00000000000000     0.00000000000000    -0.00000000000000     0.00000000000000    -0.00000000000000
   13    -0.00000000000000    -0.00000000000000     0.00000000000000     0.00000000000000     0.00000000000000
   14    -0.00000002395032    -0.00000043002406    -0.00057572632359    -0.00000092788054    -0.00000050166531
   15    -0.00040561942998    -0.00023972165022     0.00000018052262     0.02059819213202     0.00440798531795
   16     0.00000000000000    -0.00000000000000    -0.00000000000000    -0.00000000000000     0.00000000000000
   17    -0.00000000000000    -0.00000000000000     0.00000000000000     0.00000000000000     0.00000000000000
   18    -0.00272010845563     0.00028107860944    -0.00000025656220    -0.00398266176359    -0.01517406302535
   19    -0.00000005718272    -0.00000076384210    -0.00100654597871    -0.00000012409064    -0.00000029870335
   20     0.00000000000000    -0.00000000000000     0.00000000000000     0.00000000000000     0.00000000000000
   21    -0.00000000000000     0.00000000000000     0.00000000000000    -0.00000000000000    -0.00000000000000
   22     0.00000000000000    -0.00000000000000     0.00000000000000    -0.00000000000000    -0.00000000000000
   23     0.00000000000000     0.00000000000000    -0.00000000000000     0.00000000000000    -0.00000000000000

                 6                   7                   8                   9                  10

    1    -0.00000000000000    -0.00764705454063     0.00000000000001     0.00000046768843    -0.00000000000001
    2     0.00000000000000     0.00000607743464     0.00000000000000    -0.04171169030925     0.00000000000001
    3     0.00000019643053     0.00000000000001    -0.02797429715387    -0.00000000000001     0.00000288632827
    4    -0.00000000000000    -0.12959069162721     0.00000000000000     0.00009830330118    -0.00000000000001
    5    -0.00000000000000    -0.00042732305058    -0.00000000000000    -0.03101290029336     0.00000000000000
    6    -0.01527799414240     0.00000000000002     0.00000058892629    -0.00000000000001    -0.04364223431560
    7    -0.00000000000000    -0.00000210146161     0.00000000000000    -0.01842588526839     0.00000000000000
    8    -0.00000000000000    -0.04599360557220    -0.00000000000000    -0.00000138104677     0.00000000000000
    9     0.00000000000000     0.00000599419138    -0.00000000000000    -0.00519522896631     0.00000000000000
   10     0.00000051449365    -0.00000000000004     0.00581905932170    -0.00000000000000    -0.00000070439896
   11    -0.00000000000000    -0.05979429459753    -0.00000000000000    -0.00000247359871    -0.00000000000000
   12     0.00000000000000    -0.00000204482099    -0.00000000000000    -0.00382475480291     0.00000000000000
   13     0.00000000000000     0.02209562900751    -0.00000000000000     0.00000045180791     0.00000000000000
   14    -0.00906402009833     0.00000000000000     0.00000051738115    -0.00000000000000    -0.02634087017676
   15     0.00000018029239    -0.00000000000000    -0.01638518451388    -0.00000000000000     0.00000180338181
   16    -0.00000000000000    -0.00000024098669     0.00000000000000    -0.00441986028060    -0.00000000000001
   17    -0.00000000000000     0.01336936232217    -0.00000000000000     0.00000047483462    -0.00000000000000
   18     0.00000080928664     0.00000000000000    -0.00329251982958    -0.00000000000000     0.00000051770630
   19     0.00518117405101     0.00000000000000    -0.00000000298307     0.00000000000000     0.00642792311287
   20     0.00000000000000    -0.00000058677274    -0.00000000000000    -0.02048091292248     0.00000000000000
   21    -0.00000000000000     0.00783877209787    -0.00000000000000    -0.00000083327910    -0.00000000000000
   22     0.00000000000000     0.00000005288299     0.00000000000000    -0.01209352665075     0.00000000000000
   23    -0.00000000000000    -0.02250887469508    -0.00000000000000    -0.00000043915068     0.00000000000000

                11                  12

    1    -0.04251829819792     0.00000000000010
    2     0.00000638766130     0.00000000000001
    3    -0.00000000000010    -0.05709325743023
    4    -0.11324131884711     0.00000000000019
    5    -0.00037287185397    -0.00000000000001
    6     0.00000000000002    -0.00000053942288
    7    -0.00000124161461     0.00000000000001
    8    -0.06610876290775     0.00000000000011
    9     0.00000686494992    -0.00000000000001
   10    -0.00000000000001     0.02061840319060
   11    -0.07459981615634     0.00000000000012
   12    -0.00000242722842    -0.00000000000000
   13     0.02740426628720    -0.00000000000005
   14     0.00000000000000    -0.00000011744237
   15    -0.00000000000005    -0.02994776590783
   16     0.00000015502012     0.00000000000000
   17     0.00992737354418    -0.00000000000002
   18     0.00000000000001     0.00827920829708
   19     0.00000000000000     0.00000047081078
   20     0.00000128688957    -0.00000000000000
   21    -0.00870399291898     0.00000000000002
   22    -0.00000005208256     0.00000000000000
   23     0.00612906683141    -0.00000000000001



  ## CPHF Coefficients for R(0, 1) (Symmetry 0) ##
  Irrep: 1 Size: 23 x 12

                 1                   2                   3                   4                   5

    1     0.00000003528698    -0.00000016534989    -0.00021512283807    -0.00000062054767     0.00000030146905
    2    -0.00162449340861     0.00009740033109    -0.00000009872204     0.01059721581752    -0.00680537811085
    3    -0.00000000000000     0.00000000000000    -0.00000000000000     0.00000000000000    -0.00000000000000
    4     0.00000697438422     0.00000127983080     0.00016337826347    -0.00009649900828     0.00000391930833
    5    -0.00213990104746    -0.00034915702606     0.00000080923320     0.02849811911171    -0.00187426147779
    6    -0.00000000000000     0.00000000000000    -0.00000000000000     0.00000000000000    -0.00000000000000
    7    -0.00090733660587    -0.00038748537840     0.00000035172384     0.03811022138279    -0.00277631921611
    8    -0.00000002378010    -0.00000009551428    -0.00012258856520    -0.00000103466258    -0.00000091260151
    9     0.00119948723128    -0.00103775697234     0.00000067520376     0.06562271627898     0.01825906193796
   10     0.00000000000000    -0.00000000000000     0.00000000000000     0.00000000000002     0.00000000000001
   11     0.00000025048174     0.00000073400261     0.00119650953399     0.00001022872085     0.00000295623264
   12    -0.00168363248232    -0.00003576351629     0.00000004457202    -0.00343576716714    -0.01082163111217
   13    -0.00000003815347    -0.00000058371871    -0.00076480225671    -0.00000005705238    -0.00000003409002
   14     0.00000000000000    -0.00000000000000     0.00000000000000     0.00000000000000     0.00000000000000
   15     0.00000000000000    -0.00000000000000     0.00000000000000     0.00000000000000     0.00000000000000
   16    -0.00114128782474    -0.00001537397702     0.00000000234776    -0.01053033662004    -0.00438701744516
   17    -0.00000000188348    -0.00000044710146    -0.00058594462489     0.00000022778558     0.00000028396688
   18     0.00000000000000    -0.00000000000000     0.00000000000000    -0.00000000000000    -0.00000000000000
   19    -0.00000000000000    -0.00000000000000     0.00000000000000    -0.00000000000000    -0.00000000000000
   20    -0.00090664806619     0.00017515845666    -0.00000017929753    -0.01901873661500    -0.01125942585132
   21    -0.00000002311529     0.00000007413398     0.00008079439052    -0.00000034090837    -0.00000003867770
   22     0.00127312298136    -0.00074045328077     0.00000052299308     0.01398598892424     0.00741286390861
   23     0.00000008842470     0.00000132162860     0.00177893340814    -0.00000075767133    -0.00000056023893

                 6                   7                   8                   9                  10

    1     0.00657310328306    -0.00000000000000     0.00000223986946     0.00000000000001     0.03655300392725
    2     0.00000497212655    -0.00000000000000    -0.04038189663733     0.00000000000000     0.00000863201679
    3     0.00000000000001     0.00000016819792    -0.00000000000001    -0.00427026696424     0.00000000000002
    4    -0.08708180643628    -0.00000000000000     0.00022079834714    -0.00000000000002    -0.14961227712723
    5    -0.00028633936707    -0.00000000000000    -0.06637890026549    -0.00000000000000    -0.00048987642826
    6     0.00000000000001    -0.02216109358671     0.00000000000000    -0.00000095908942     0.00000000000001
    7    -0.00000211795048    -0.00000000000000    -0.06773547001410    -0.00000000000000    -0.00000233810952
    8    -0.02462877780956     0.00000000000000     0.00000045788252    -0.00000000000001    -0.04731207074921
    9     0.00000105247942    -0.00000000000000    -0.06418229971742     0.00000000000000     0.00000171054300
   10    -0.00000000000001    -0.00000068096597    -0.00000000000002    -0.00738442956421    -0.00000000000000
   11    -0.01861632198748     0.00000000000000    -0.00000935354228     0.00000000000000    -0.00215971661272
   12    -0.00000097304459     0.00000000000000    -0.01605970271833    -0.00000000000000    -0.00000234875308
   13     0.00740464077497     0.00000000000000    -0.00000010176946     0.00000000000000     0.01194021402067
   14    -0.00000000000000    -0.01270100254840    -0.00000000000000    -0.00000054892565     0.00000000000000
   15    -0.00000000000000     0.00000028658025    -0.00000000000000    -0.00435914743204     0.00000000000000
   16     0.00000034344718    -0.00000000000000     0.00474848749108     0.00000000000000     0.00000009914857
   17     0.00953444703477    -0.00000000000000     0.00000000050836     0.00000000000000     0.01150687690518
   18     0.00000000000000    -0.00000074348953    -0.00000000000000    -0.02458972414284     0.00000000000000
   19     0.00000000000000     0.00654798926716    -0.00000000000000    -0.00000012746795     0.00000000000001
   20    -0.00000072145308    -0.00000000000000    -0.00363514243406     0.00000000000000    -0.00000332393370
   21     0.01996342658236    -0.00000000000000    -0.00000017447039     0.00000000000001     0.03876960538567
   22     0.00000058838506    -0.00000000000000    -0.01875076973504     0.00000000000000     0.00000158020780
   23    -0.03917191498083     0.00000000000000    -0.00000019543856    -0.00000000000001    -0.05459013610080

                11                  12

    1    -0.00000000000001     0.00000117341684
    2     0.00000000000008     0.04579745125154
    3     0.00000083760552     0.00000000000000
    4    -0.00000000000000     0.00000538365310
    5    -0.00000000000000    -0.00136325163782
    6    -0.04760102322252     0.00000000000008
    7    -0.00000000000008    -0.04900730113306
    8     0.00000000000000    -0.00000037938650
    9    -0.00000000000013    -0.07639228665264
   10    -0.00000069670674    -0.00000000000003
   11    -0.00000000000000    -0.00001135860587
   12     0.00000000000001     0.00568527918013
   13     0.00000000000001     0.00000040899413
   14    -0.03278877612494     0.00000000000005
   15     0.00000073447836    -0.00000000000000
   16     0.00000000000004     0.02667760729917
   17    -0.00000000000000    -0.00000018444662
   18     0.00000054193041     0.00000000000001
   19    -0.00189390476528     0.00000000000000
   20     0.00000000000010     0.05646463165153
   21     0.00000000000000     0.00000355680841
   22     0.00000000000001     0.00453311043854
   23    -0.00000000000000    -0.00000079396991



  ## CPHF Coefficients for R(0, 2) (Symmetry 0) ##
  Irrep: 1 Size: 23 x 12

                 1                   2                   3                   4                   5

    1    -0.00048729853844    -0.00022993988736     0.00000017110003    -0.00642345745057     0.01320502793299
    2     0.00000009408506     0.00000019628943     0.00006476520935     0.00000242443668    -0.00000503279691
    3    -0.00000000000000     0.00000000000000     0.00000000000000     0.00000000000000    -0.00000000000000
    4    -0.00109758538538    -0.00291513780366     0.00000224757721    -0.05272006701007     0.09398722860436
    5    -0.00000362657818    -0.00000962181180     0.00000235359511    -0.00017424201727     0.00030904433729
    6     0.00000000000000     0.00000000000000    -0.00000000000000     0.00000000000001    -0.00000000000002
    7    -0.00000004563403     0.00000033278838     0.00054102206649    -0.00000083416464     0.00000145174666
    8     0.00131857035611    -0.00118851462178     0.00000093980038     0.03034030094151     0.03966972507637
    9     0.00000006669060     0.00000063709747     0.00064993991643     0.00000113457755    -0.00000437371751
   10    -0.00000000000000    -0.00000000000000     0.00000000000000     0.00000000000000     0.00000000000003
   11     0.00001772591082    -0.00166121562264     0.00000138812638     0.00167398778775     0.05223480951767
   12     0.00000003274779     0.00000067077882     0.00096505318502     0.00000103276256     0.00000147245019
   13     0.00020288427188     0.00053320971717    -0.00000039377434    -0.02852241076407    -0.01642008548283
   14     0.00000000000000     0.00000000000000     0.00000000000000    -0.00000000000000    -0.00000000000000
   15    -0.00000000000000     0.00000000000000    -0.00000000000000     0.00000000000000     0.00000000000000
   16     0.00000000257298    -0.00000013517292    -0.00017661520358    -0.00000085569893    -0.00000041331668
   17     0.00104689868694    -0.00034637620386     0.00000027865022     0.01560661535612    -0.00344763086838
   18     0.00000000000000     0.00000000000000     0.00000000000000     0.00000000000000    -0.00000000000000
   19     0.00000000000000    -0.00000000000000     0.00000000000000     0.00000000000001     0.00000000000000
   20    -0.00000000169487     0.00000088986130     0.00112123981609    -0.00000286216104    -0.00000137269750
   21     0.00042211398675    -0.00059958995237     0.00000053295105     0.04227686475129     0.00716955822723
   22    -0.00000000110736     0.00000080838026     0.00106303309887     0.00000100487323    -0.00000033497293
   23     0.00442754527437     0.00041977942200    -0.00000022104368    -0.02506327160447     0.02885854397934

                 6                   7                   8                   9                  10

    1     0.00000008789835    -0.00000000000001     0.01461184637502    -0.00000000000000    -0.00000066357192
    2    -0.01289523315842    -0.00000000000000    -0.00000972413066    -0.00000000000001    -0.03390772899755
    3     0.00000000000000     0.02022000891160    -0.00000000000001     0.00000128149731    -0.00000000000000
    4     0.00003408753804     0.00000000000000     0.19114056843493     0.00000000000000    -0.00007746395707
    5    -0.01129896229880     0.00000000000000     0.00063000838884     0.00000000000000     0.02148801742409
    6    -0.00000000000000    -0.00000089425354    -0.00000000000002    -0.00821352944696     0.00000000000000
    7     0.02180060463458    -0.00000000000000     0.00000221081239     0.00000000000001     0.07475577628700
    8    -0.00000162463691     0.00000000000000     0.00784838015913    -0.00000000000000     0.00000002343676
    9     0.04656248520311     0.00000000000001    -0.00000762050296     0.00000000000002     0.14102060117904
   10     0.00000000000002    -0.01698266611541     0.00000000000004    -0.00000105615171     0.00000000000005
   11     0.00000582139020     0.00000000000001     0.06668029313498     0.00000000000000     0.00002126382008
   12    -0.00074623013122     0.00000000000000     0.00000015918612    -0.00000000000000    -0.00126390285580
   13     0.00000020508918     0.00000000000000     0.01183521102458     0.00000000000000    -0.00000180132391
   14     0.00000000000001    -0.00000085886407     0.00000000000000    -0.00300315538861     0.00000000000001
   15     0.00000000000000     0.01318675580903    -0.00000000000000     0.00000102823451     0.00000000000000
   16    -0.01952401334602     0.00000000000000     0.00000081857773    -0.00000000000001    -0.03260679645834
   17    -0.00000024421861     0.00000000000000    -0.02386572727520    -0.00000000000000     0.00000011885368
   18    -0.00000000000001    -0.03028646971365     0.00000000000000    -0.00000035036570    -0.00000000000001
   19    -0.00000000000000    -0.00000032978806    -0.00000000000001     0.00860362115382    -0.00000000000000
   20    -0.04019325449352     0.00000000000000     0.00000198034268    -0.00000000000001    -0.06651130332945
   21    -0.00000242839631    -0.00000000000000    -0.04585833475484    -0.00000000000000    -0.00000249087280
   22    -0.00251662468927    -0.00000000000000    -0.00000107495349     0.00000000000000     0.01921915479908
   23    -0.00000135324845     0.00000000000000     0.04496719942086    -0.00000000000000    -0.00000172809361

                11                  12

    1    -0.00000000000003     0.00376657424796
    2    -0.00000000000001    -0.00000131624496
    3     0.08835211646258    -0.00000000000015
    4     0.00000000000007     0.03555463151343
    5     0.00000000000001     0.00012084861568
    6    -0.00000156750215    -0.00000000000000
    7    -0.00000000000001     0.00000551686281
    8    -0.00000000000009    -0.05204292994573
    9     0.00000000000001     0.00000569161079
   10    -0.02888277193341     0.00000000000005
   11     0.00000000000002     0.00037666300312
   12     0.00000000000000    -0.00000086263737
   13     0.00000000000008     0.04149378754080
   14    -0.00000165612944     0.00000000000000
   15     0.05316086425067    -0.00000000000010
   16    -0.00000000000000    -0.00000059985979
   17     0.00000000000000    -0.00068188966227
   18     0.00831219428493    -0.00000000000001
   19    -0.00000054357044    -0.00000000000000
   20    -0.00000000000000    -0.00000069661082
   21    -0.00000000000004    -0.02173165186863
   22    -0.00000000000000     0.00000054419506
   23     0.00000000000002     0.01471418209126



  ## CPHF Coefficients for R(1, 0) (Symmetry 0) ##
  Irrep: 1 Size: 23 x 12

                 1                   2                   3                   4                   5

    1    -0.00000000000000     0.00000000000000    -0.00000000000000     0.00000000000000     0.00000000000000
    2     0.00000000000000    -0.00000000000000     0.00000000000000     0.00000000000000     0.00000000000000
    3     0.00028115824353     0.00099913684365    -0.00122193534244    -0.00772720232965    -0.01170240159374
    4     0.00000000000000    -0.00000000000000     0.00000000000000     0.00000000000000    -0.00000000000000
    5    -0.00000000000000     0.00000000000000    -0.00000000000000    -0.00000000000000    -0.00000000000000
    6    -0.00011494551416    -0.00018242204756     0.00087681560010     0.01514664165421    -0.00804297589259
    7     0.00000000000000    -0.00000000000000     0.00000000000000     0.00000000000000     0.00000000000000
    8    -0.00000000000000     0.00000000000000    -0.00000000000000    -0.00000000000000     0.00000000000000
    9    -0.00000000000000     0.00000000000000    -0.00000000000000    -0.00000000000000    -0.00000000000002
   10     0.00188394877503    -0.00132916526850     0.00611065225017     0.00006685799594     0.04461490259609
   11    -0.00000000000000     0.00000000000000    -0.00000000000000     0.00000000000000    -0.00000000000003
   12    -0.00000000000000    -0.00000000000000     0.00000000000000    -0.00000000000000     0.00000000000000
   13    -0.00000000000000    -0.00000000000000    -0.00000000000000    -0.00000000000001     0.00000000000000
   14     0.00039491601795     0.00051088603495    -0.00036843905858     0.02057700425450    -0.00810812602600
   15     0.00002995542664    -0.00122872148061    -0.00026725405853    -0.01304115141769     0.00249230409608
   16     0.00000000000000     0.00000000000000    -0.00000000000000     0.00000000000001    -0.00000000000000
   17    -0.00000000000000     0.00000000000000    -0.00000000000000     0.00000000000000    -0.00000000000001
   18     0.00137824710686     0.00046922755218     0.00030849866212     0.00462955716047     0.00058152892706
   19     0.00088224231104    -0.00205713918620     0.00203821590423    -0.00786534709014     0.03719625390181
   20    -0.00000000000000     0.00000000000000    -0.00000000000000    -0.00000000000000    -0.00000000000000
   21     0.00000000000000     0.00000000000000    -0.00000000000000     0.00000000000000    -0.00000000000001
   22    -0.00000000000000    -0.00000000000000     0.00000000000000    -0.00000000000000     0.00000000000000
   23    -0.00000000000000     0.00000000000000    -0.00000000000000    -0.00000000000000     0.00000000000000

                 6                   7                   8                   9                  10

    1     0.00000000000000     0.05237766612987    -0.00000000000002     0.08793999987583     0.00000000000000
    2    -0.00000000000000    -0.03099346578593    -0.00000000000000    -0.02284574215196     0.00000000000001
    3     0.00046765599978     0.00000000000001     0.02060787493316     0.00000000000003    -0.03101176606081
    4    -0.00000000000000     0.06068437297420    -0.00000000000001    -0.00425114747879     0.00000000000001
    5     0.00000000000000     0.05530223806605     0.00000000000000     0.07300186578707    -0.00000000000002
    6    -0.01536671381744    -0.00000000000002    -0.07490100126613    -0.00000000000002     0.03823066832200
    7    -0.00000000000000     0.05243322153521    -0.00000000000001     0.01257462025687     0.00000000000001
    8     0.00000000000000    -0.00763512175846     0.00000000000000    -0.06722006499384     0.00000000000001
    9     0.00000000000003     0.01483485519205     0.00000000000002    -0.02783503765711    -0.00000000000000
   10    -0.07608715055941     0.00000000000002    -0.04794999241069     0.00000000000000     0.01548242300143
   11     0.00000000000005     0.02359987839062     0.00000000000003     0.00923240315428    -0.00000000000001
   12    -0.00000000000000     0.02012092840207     0.00000000000000    -0.03826850053297     0.00000000000000
   13     0.00000000000000    -0.02969371107332     0.00000000000001    -0.03184324904105     0.00000000000000
   14    -0.00225513610857     0.00000000000000    -0.04015797305377    -0.00000000000000     0.01807339648541
   15    -0.00580604870260     0.00000000000001     0.00376856101840     0.00000000000001    -0.00161399795408
   16     0.00000000000000    -0.00506921614230    -0.00000000000001     0.01132016747450     0.00000000000000
   17     0.00000000000001    -0.02188448477073     0.00000000000000    -0.02320308547200     0.00000000000000
   18     0.00291906073506    -0.00000000000000     0.00987031475455    -0.00000000000001    -0.01713523942406
   19    -0.04218708447795    -0.00000000000000    -0.02512072202234     0.00000000000000     0.02245356275111
   20     0.00000000000000    -0.01116894841007     0.00000000000000    -0.01100609278285     0.00000000000000
   21     0.00000000000001     0.01109661110140     0.00000000000000     0.01674673751888    -0.00000000000001
   22     0.00000000000000     0.03689037761965    -0.00000000000000     0.03624374001784    -0.00000000000001
   23     0.00000000000000     0.01469353204298     0.00000000000000     0.01992842466800    -0.00000000000000

                11                  12

    1    -0.02427382116296     0.00000000000004
    2     0.08039581900188    -0.00000000000014
    3     0.00000000000004     0.02551365555077
    4     0.06165622606868    -0.00000000000010
    5     0.04309565763875    -0.00000000000008
    6     0.00000000000008     0.04141977441423
    7     0.04845065725455    -0.00000000000008
    8     0.06725275607959    -0.00000000000012
    9     0.07253207255147    -0.00000000000013
   10     0.00000000000006     0.01045055265982
   11     0.04378391112952    -0.00000000000008
   12     0.03467153814756    -0.00000000000006
   13     0.00900612890022    -0.00000000000002
   14     0.00000000000003     0.01724622377176
   15     0.00000000000003     0.01784404905994
   16    -0.00635236154994     0.00000000000002
   17     0.01221558560138    -0.00000000000002
   18    -0.00000000000001    -0.00859661756206
   19     0.00000000000001     0.00913001455329
   20     0.01727402971122    -0.00000000000003
   21    -0.01285766619615     0.00000000000002
   22    -0.01678042004795     0.00000000000003
   23    -0.00422395444635     0.00000000000001



  ## CPHF Coefficients for R(1, 1) (Symmetry 0) ##
  Irrep: 1 Size: 23 x 12

                 1                   2                   3                   4                   5

    1     0.00041987034398     0.00091496032343    -0.00022425914415    -0.00367036156262     0.00198023555666
    2     0.00104479194721    -0.00096930118889     0.00056829603373    -0.00616966735839     0.01587437146570
    3    -0.00000000000000     0.00000000000000    -0.00000000000000    -0.00000000000000    -0.00000000000000
    4     0.00030346940243     0.00047368417162    -0.00030761817910    -0.01172653436747     0.03516921316595
    5     0.00103237329505     0.00096923514236    -0.00097082999898    -0.01411354253905     0.00071098268004
    6     0.00000000000000    -0.00000000000000     0.00000000000000     0.00000000000000    -0.00000000000001
    7     0.00017456606501     0.00037323393221    -0.00029768726451    -0.01588128815810    -0.01368887957509
    8     0.00024369223310    -0.00135029124087     0.00149623076099    -0.03434007780023     0.06241481567149
    9    -0.00058322294811     0.00035812135762    -0.00094417935475    -0.03561445626836    -0.00173140372285
   10    -0.00000000000000     0.00000000000000    -0.00000000000000    -0.00000000000002    -0.00000000000002
   11    -0.00024223480882     0.00150834098547    -0.00134513095961    -0.01592149334209    -0.02742730698293
   12     0.00081525026622    -0.00070699317179    -0.00060097652127    -0.00142351737664     0.01062346478388
   13     0.00056212834714     0.00008178488185     0.00013569592359     0.02033046895424    -0.00973032377392
   14    -0.00000000000000    -0.00000000000000    -0.00000000000000    -0.00000000000000    -0.00000000000000
   15     0.00000000000000     0.00000000000000     0.00000000000000    -0.00000000000000    -0.00000000000000
   16     0.00031339121230    -0.00062126974187     0.00282685351368    -0.00007618025025     0.01653009968284
   17     0.00046644304504     0.00071498391850    -0.00049692909671     0.00615562513189    -0.01662955833778
   18     0.00000000000000     0.00000000000000     0.00000000000000     0.00000000000000     0.00000000000000
   19     0.00000000000000    -0.00000000000000     0.00000000000000    -0.00000000000000     0.00000000000000
   20     0.00041148459784     0.00054012470361     0.00227206601097     0.00988791597479     0.00692857031820
   21    -0.00016807921988    -0.00104176645509     0.00061027569731    -0.02328991036383     0.01627831259044
   22    -0.00044019487116     0.00016635186127    -0.00273472380076    -0.00419602519741    -0.01300545008132
   23    -0.00121732436260     0.00106319751511    -0.00106341091285     0.01261342193697    -0.01177213176335

                 6                   7                   8                   9                  10

    1     0.00382283278202     0.00000000000000     0.02204562472552    -0.00000000000004    -0.02321885722233
    2    -0.03003509203454     0.00000000000000    -0.00110576631023    -0.00000000000001     0.02737474682792
    3    -0.00000000000000    -0.01779019157108     0.00000000000001     0.06051331888511    -0.00000000000002
    4     0.04917646663219    -0.00000000000000     0.07768251883247     0.00000000000001     0.07275950919627
    5     0.00250809564543    -0.00000000000000     0.02895931754238     0.00000000000001    -0.00760515432210
    6    -0.00000000000001    -0.02409374745447    -0.00000000000002    -0.07259533567648     0.00000000000001
    7     0.04013072215017     0.00000000000000     0.04698747863404     0.00000000000000     0.00094950109139
    8     0.00082901950353    -0.00000000000000     0.07522426919980     0.00000000000000     0.02837781734434
    9    -0.00556345792659     0.00000000000001     0.02959588001764     0.00000000000002     0.01698201729907
   10    -0.00000000000000    -0.01603218607458     0.00000000000002    -0.03753365104944     0.00000000000001
   11     0.00218662258381     0.00000000000001     0.00791680911208     0.00000000000003     0.00746024211745
   12     0.02799280654076    -0.00000000000000     0.01699085769757     0.00000000000000     0.00615988320217
   13    -0.02347689316622    -0.00000000000000    -0.05897736980978     0.00000000000001     0.00813743832543
   14     0.00000000000001    -0.00455041372908     0.00000000000000    -0.05080993856605     0.00000000000001
   15     0.00000000000000    -0.02398557477756     0.00000000000001     0.01402259307739    -0.00000000000000
   16    -0.02480570290460     0.00000000000000    -0.00082750690213    -0.00000000000002    -0.01306862758849
   17    -0.00470558839744     0.00000000000000    -0.02423588779305     0.00000000000000    -0.00281913158713
   18    -0.00000000000000     0.01567275564105    -0.00000000000000     0.01447050330872    -0.00000000000000
   19    -0.00000000000000    -0.02347668831879     0.00000000000001    -0.04192523381650     0.00000000000000
   20    -0.00907252280863    -0.00000000000000    -0.00523926413673     0.00000000000000     0.01056430105765
   21    -0.00522633741844     0.00000000000000     0.04315511075653     0.00000000000000    -0.02516353697833
   22     0.02966518195713     0.00000000000000     0.01934363302856    -0.00000000000000    -0.00392788456798
   23     0.02241113026976    -0.00000000000000    -0.00884077419393     0.00000000000000     0.02607655153205

                11                  12

    1    -0.00000000000006    -0.04116319651406
    2    -0.00000000000001    -0.00669053790832
    3    -0.01714359595962     0.00000000000002
    4    -0.00000000000018    -0.10789113989354
    5    -0.00000000000001    -0.00693418827266
    6     0.04651688966386    -0.00000000000005
    7     0.00000000000004     0.02439005560450
    8    -0.00000000000012    -0.06951725704376
    9     0.00000000000004     0.03355122078761
   10     0.04074601030970    -0.00000000000002
   11     0.00000000000009     0.06914668543522
   12    -0.00000000000003    -0.01666495182713
   13     0.00000000000002     0.01497566116854
   14     0.03439666395448    -0.00000000000006
   15    -0.01573299170793     0.00000000000003
   16    -0.00000000000004    -0.02581704771825
   17     0.00000000000007     0.03884088550783
   18    -0.00791380116950     0.00000000000001
   19     0.01923068316929    -0.00000000000003
   20    -0.00000000000004    -0.02357640215831
   21    -0.00000000000003    -0.01421623497672
   22    -0.00000000000000    -0.00389006760721
   23    -0.00000000000004    -0.02194278684236



  ## CPHF Coefficients for R(1, 2) (Symmetry 0) ##
  Irrep: 1 Size: 23 x 12

                 1                   2                   3                   4                   5

    1    -0.00013366181040     0.00050974568414    -0.00047709814363     0.00115554404771    -0.01317730526164
    2    -0.00001972760270     0.00069234570208    -0.00074882631879     0.03058952022242    -0.03813561893171
    3    -0.00000000000000     0.00000000000000     0.00000000000000     0.00000000000000    -0.00000000000000
    4     0.00028113013637     0.00278797000263    -0.00542771400196     0.03255647698351    -0.05970482186692
    5     0.00027586673406     0.00099770191353    -0.00089789675246     0.01459877752562    -0.03823288300783
    6     0.00000000000000    -0.00000000000000     0.00000000000000    -0.00000000000000     0.00000000000001
    7     0.00169151701007     0.00027130237649    -0.00039973660833    -0.01818076946856    -0.03385878546646
    8    -0.00081086694265     0.00046895520262    -0.00022281831365    -0.01684748172545    -0.01936086937550
    9    -0.00048529943222    -0.00055784306133     0.00075354174363    -0.03064748146790    -0.04903872683383
   10    -0.00000000000000    -0.00000000000000     0.00000000000000    -0.00000000000001    -0.00000000000004
   11     0.00002364438061    -0.00012998124204     0.00310644339040     0.00057963006051    -0.03645268325141
   12    -0.00005619076866     0.00110918942225    -0.00088764375631    -0.02854310624526    -0.00386681368262
   13    -0.00055199013088    -0.00008724923831     0.00003540366486     0.01040499119373     0.01115753934337
   14    -0.00000000000000     0.00000000000000    -0.00000000000000    -0.00000000000001    -0.00000000000000
   15     0.00000000000000     0.00000000000000     0.00000000000000    -0.00000000000000    -0.00000000000000
   16    -0.00013275364132    -0.00070890005542     0.00035263945969     0.01594835188914     0.00994503445284
   17    -0.00048097585672     0.00045643362865     0.00022481252228    -0.00641058075082     0.00384393915328
   18    -0.00000000000000     0.00000000000000    -0.00000000000000     0.00000000000000     0.00000000000000
   19    -0.00000000000000     0.00000000000000    -0.00000000000000    -0.00000000000000    -0.00000000000000
   20    -0.00151802620022    -0.00007524151210    -0.00074572035069     0.01763277501708    -0.00379379967233
   21     0.00000907602189    -0.00004923134190    -0.00027977604329    -0.02067704512178    -0.00302842679387
   22    -0.00099278447246     0.00044541055588    -0.00045912543597    -0.00876249272933    -0.01695395866477
   23    -0.00199388345554    -0.00002291179889    -0.00228507622610     0.01463621986983    -0.01192149786739

                 6                   7                   8                   9                  10

    1     0.00124593990215     0.00000000000000    -0.00384382421652    -0.00000000000001    -0.02249527123499
    2     0.03153373640511     0.00000000000000    -0.04138125171530    -0.00000000000000     0.00450357119200
    3    -0.00000000000000    -0.00006604639443     0.00000000000000     0.01828906438756    -0.00000000000001
    4     0.05370131268322     0.00000000000000    -0.08234902230325     0.00000000000000     0.03369832690345
    5     0.02839962839829     0.00000000000000    -0.01612857336060     0.00000000000000    -0.02883896730446
    6    -0.00000000000001     0.00513977039366     0.00000000000001    -0.02150211056490     0.00000000000000
    7     0.00106258694174     0.00000000000000     0.01874501456165    -0.00000000000001    -0.03429832403947
    8    -0.00644558510505    -0.00000000000000    -0.00465549335246     0.00000000000000    -0.00338319678902
    9    -0.01586763957865     0.00000000000000     0.00613936060471    -0.00000000000001    -0.08783351755054
   10    -0.00000000000001    -0.00458280411581    -0.00000000000001    -0.01429428981832    -0.00000000000008
   11    -0.00376244514695     0.00000000000000    -0.01767397807979    -0.00000000000000    -0.07668837425374
   12    -0.01287934016715     0.00000000000000     0.02834493376155     0.00000000000000     0.00254517750068
   13    -0.00202323155708    -0.00000000000000    -0.01164020113990     0.00000000000000     0.01060053983735
   14    -0.00000000000000     0.00968841801118     0.00000000000001    -0.00509677435719    -0.00000000000000
   15     0.00000000000000    -0.00429463150332     0.00000000000000     0.00667698031465    -0.00000000000000
   16     0.00343806217575     0.00000000000000    -0.01678304610237    -0.00000000000000     0.00544335064938
   17     0.00197726616631     0.00000000000000     0.01398078085770     0.00000000000000     0.00352487282695
   18     0.00000000000000     0.02103182582440    -0.00000000000000     0.02780468296467    -0.00000000000000
   19    -0.00000000000000    -0.00985272105969     0.00000000000001    -0.01244015149792    -0.00000000000000
   20     0.02038596863768    -0.00000000000000    -0.02027759995115     0.00000000000000     0.03995190120167
   21    -0.00788916104624     0.00000000000000     0.02682476886402    -0.00000000000000    -0.02379747129707
   22     0.00673288424250    -0.00000000000000     0.00903071601033    -0.00000000000000    -0.01020033933961
   23     0.02462515722703    -0.00000000000000    -0.02555741691994     0.00000000000001     0.04455674398318

                11                  12

    1     0.00000000000005     0.00533745760574
    2    -0.00000000000010    -0.06068007317129
    3    -0.07117638640922     0.00000000000013
    4    -0.00000000000006    -0.03881928507190
    5    -0.00000000000008    -0.03859321192879
    6     0.08432889931880    -0.00000000000014
    7     0.00000000000012     0.06659477904509
    8     0.00000000000006     0.03431962090041
    9     0.00000000000013     0.07802169937053
   10     0.01955860760652    -0.00000000000001
   11    -0.00000000000002    -0.00621466984853
   12     0.00000000000011     0.06591158755463
   13     0.00000000000001     0.01146515409427
   14     0.02970434539904    -0.00000000000003
   15    -0.03098546318040     0.00000000000005
   16    -0.00000000000003    -0.02468799339003
   17    -0.00000000000002    -0.01010863657972
   18     0.00191481040872    -0.00000000000001
   19    -0.01178235025377     0.00000000000002
   20    -0.00000000000006    -0.03329622258662
   21     0.00000000000003     0.01399083163658
   22     0.00000000000001     0.00634953301293
   23    -0.00000000000001    -0.00803669911523



  ## CPHF Coefficients for R(2, 0) (Symmetry 0) ##
  Irrep: 1 Size: 23 x 12

                 1                   2                   3                   4                   5

    1     0.00000000000000    -0.00000000000000     0.00000000000000    -0.00000000000000     0.00000000000001
    2     0.00000000000000    -0.00000000000000    -0.00000000000000     0.00000000000000     0.00000000000000
    3     0.00028117079104     0.00100103085880     0.00122037084245    -0.00772644686090    -0.01170212684202
    4    -0.00000000000000     0.00000000000000    -0.00000000000000    -0.00000000000000     0.00000000000000
    5    -0.00000000000000     0.00000000000000    -0.00000000000000    -0.00000000000000    -0.00000000000000
    6     0.00011497664068     0.00018376564461     0.00087647809278    -0.01514592309408     0.00804268624160
    7     0.00000000000000    -0.00000000000000     0.00000000000000    -0.00000000000000     0.00000000000000
    8     0.00000000000000    -0.00000000000000     0.00000000000000    -0.00000000000000    -0.00000000000000
    9    -0.00000000000000     0.00000000000000     0.00000000000000     0.00000000000000    -0.00000000000002
   10     0.00188381131402    -0.00133858013542    -0.00610857022093     0.00006683891646     0.04461777273897
   11    -0.00000000000000     0.00000000000000     0.00000000000000    -0.00000000000000    -0.00000000000003
   12    -0.00000000000000     0.00000000000000    -0.00000000000000     0.00000000000000     0.00000000000000
   13     0.00000000000000    -0.00000000000000     0.00000000000000     0.00000000000000    -0.00000000000000
   14    -0.00039488143810    -0.00051146941423    -0.00036768610871    -0.02057608398399     0.00810851675116
   15     0.00002997261034    -0.00122832420761     0.00026915051585    -0.01304048267993     0.00249276951689
   16    -0.00000000000000    -0.00000000000000     0.00000000000000    -0.00000000000001     0.00000000000000
   17     0.00000000000000    -0.00000000000000    -0.00000000000000    -0.00000000000000     0.00000000000000
   18     0.00137815188854     0.00046873475362    -0.00030921071733     0.00462947201089     0.00058155264577
[...]
   21    -0.03506486646512    -0.00000000000000    -0.00000236050928    -0.00000000000000    -0.01982313439514
   22     0.00000200474758    -0.00000000000000    -0.04838854076411    -0.00000000000000     0.00000154512698
   23    -0.01386998487392     0.00000000000000    -0.00000088520856    -0.00000000000000    -0.02012270572118

                11                  12

    1     0.00000000000003    -0.00000267395828
    2    -0.00000000000042    -0.24022379581659
    3     0.00000415287042    -0.00000000000003
    4     0.00000000000001    -0.00043067923267
    5     0.00000000000021     0.12125095360303
    6     0.09164139777459    -0.00000000000016
    7     0.00000000000029     0.17087054976877
    8     0.00000000000000    -0.00000201173215
    9     0.00000000000022     0.12559688113763
   10     0.00000365921070     0.00000000000005
   11    -0.00000000000000     0.00002559630923
   12    -0.00000000000005    -0.03399829994476
   13     0.00000000000001    -0.00000152064669
   14    -0.07395230184743     0.00000000000012
   15    -0.00000240805554     0.00000000000001
   16     0.00000000000000     0.01506945911094
   17     0.00000000000001     0.00000195807768
   18    -0.00000159072497    -0.00000000000002
   19    -0.12875759570319     0.00000000000022
   20    -0.00000000000022    -0.12878470219720
   21     0.00000000000002    -0.00000652644147
   22    -0.00000000000002    -0.01079681753598
   23     0.00000000000000    -0.00000264994326



  ## CPHF Coefficients for B(1) (Symmetry 0) ##
  Irrep: 1 Size: 23 x 12

                 1                   2                   3                   4                   5

    1    -0.00000000000000    -0.00000000000000     0.00000000000000    -0.00000000000001     0.00000000000000
    2    -0.00000000000000    -0.00000000000000    -0.00000000000000    -0.00000000000000     0.00000000000000
    3     0.00644868208541     0.01360666839885    -0.00001013354952     0.02683023416467    -0.01088946702237
    4     0.00000000000000     0.00000000000000     0.00000000000000     0.00000000000000    -0.00000000000000
    5     0.00000000000000     0.00000000000000     0.00000000000000     0.00000000000000    -0.00000000000000
    6    -0.00000006174728     0.00001114759145     0.01400428235756    -0.00000048608541    -0.00000130846777
    7    -0.00000000000000    -0.00000000000000     0.00000000000000    -0.00000000000000     0.00000000000000
    8     0.00000000000000     0.00000000000000    -0.00000000000000     0.00000000000000    -0.00000000000000
    9    -0.00000000000001     0.00000000000001    -0.00000000000000    -0.00000000000000    -0.00000000000003
   10     0.01446100932399    -0.01274911873682     0.00000944461479     0.01612109793502     0.08397051478205
   11    -0.00000000000001     0.00000000000001     0.00000000000000    -0.00000000000001    -0.00000000000005
   12     0.00000000000000     0.00000000000000    -0.00000000000000     0.00000000000000     0.00000000000000
   13     0.00000000000000     0.00000000000000    -0.00000000000001     0.00000000000001    -0.00000000000000
   14    -0.00000017416506     0.00002517897708     0.03168107432168    -0.00000033898268    -0.00000280818265
   15     0.01161716908052     0.02761094207537    -0.00002046825142     0.04627333743206    -0.01281402462936
   16    -0.00000000000000    -0.00000000000000     0.00000000000001    -0.00000000000000    -0.00000000000000
   17    -0.00000000000000     0.00000000000000     0.00000000000000    -0.00000000000000    -0.00000000000000
   18     0.04454051681199    -0.00417791751645     0.00000316506967     0.09210453783223     0.09757567820214
   19     0.00000044036533     0.00000169659697     0.00229795749563     0.00000121419428     0.00000043179992
   20    -0.00000000000000     0.00000000000000    -0.00000000000000    -0.00000000000001    -0.00000000000001
   21     0.00000000000000    -0.00000000000000    -0.00000000000000     0.00000000000000     0.00000000000000
   22    -0.00000000000000    -0.00000000000000    -0.00000000000000    -0.00000000000000     0.00000000000000
   23    -0.00000000000000     0.00000000000000    -0.00000000000000     0.00000000000000     0.00000000000000

                 6                   7                   8                   9                  10

    1    -0.00000000000001     0.13592051009441     0.00000000000000    -0.00000691746258    -0.00000000000003
    2     0.00000000000000     0.00001731364009     0.00000000000000    -0.47237474519446     0.00000000000007
    3     0.00000027241191     0.00000000000007    -0.01261055225992    -0.00000000000011     0.00001022467204
    4    -0.00000000000001    -0.31927315761072     0.00000000000001     0.00028348476792    -0.00000000000001
    5    -0.00000000000000    -0.00105275561794     0.00000000000000    -0.08849570677062     0.00000000000001
    6    -0.04730652392363     0.00000000000002     0.00000109242377    -0.00000000000001    -0.08227074571861
    7    -0.00000000000000    -0.00000039215806     0.00000000000000    -0.26588610679133     0.00000000000004
    8     0.00000000000000     0.01373225323139    -0.00000000000000    -0.00001156156269    -0.00000000000000
    9     0.00000000000000     0.00000276068470    -0.00000000000000     0.09035220336734    -0.00000000000001
   10    -0.00000008570835    -0.00000000000002     0.00395616797301     0.00000000000004     0.00000150840975
   11    -0.00000000000000    -0.03852113301442    -0.00000000000000     0.00000823774045    -0.00000000000000
   12     0.00000000000000    -0.00000203173629     0.00000000000000     0.03053173940235    -0.00000000000001
   13     0.00000000000001     0.06384236621083     0.00000000000000     0.00000011829034    -0.00000000000000
   14    -0.06560916629947     0.00000000000002     0.00000092737606    -0.00000000000001     0.02422561930276
   15    -0.00000164665925    -0.00000000000001     0.02077142413193    -0.00000000000000     0.00000199656840
   16    -0.00000000000002    -0.00000039979475    -0.00000000000000     0.04040492183660     0.00000000000000
   17    -0.00000000000001    -0.01847698193467    -0.00000000000000     0.00000279756110    -0.00000000000001
   18    -0.00000379327951     0.00000000000000     0.04861624353519    -0.00000000000000    -0.00000425388487
   19    -0.01331613473643     0.00000000000001     0.00000095727983     0.00000000000001     0.08737671725262
   20     0.00000000000000    -0.00000180987802    -0.00000000000000    -0.02538355655646     0.00000000000000
   21     0.00000000000001     0.03943971510900    -0.00000000000000    -0.00000295275968    -0.00000000000002
   22     0.00000000000000    -0.00000168976175    -0.00000000000000     0.02316605283219    -0.00000000000000
   23     0.00000000000000     0.05738853187290    -0.00000000000000     0.00000175073298     0.00000000000000

                11                  12

    1    -0.32315545994627     0.00000000000067
    2     0.00000137885172     0.00000000000005
    3    -0.00000000000064    -0.29980669296046
    4     0.21860765094012    -0.00000000000040
    5     0.00072317439265    -0.00000000000003
    6     0.00000000000003     0.00000015963898
    7     0.00001070139386     0.00000000000003
    8    -0.18233218016224     0.00000000000031
    9     0.00000671441215     0.00000000000003
   10    -0.00000000000022    -0.09829503699354
   11    -0.09161921957169     0.00000000000022
   12    -0.00000365421852    -0.00000000000001
   13     0.10861321964580    -0.00000000000019
   14     0.00000000000001     0.00000103096635
   15    -0.00000000000004    -0.01407568557989
   16     0.00000081303173     0.00000000000000
   17     0.04980231096662    -0.00000000000009
   18     0.00000000000018     0.10556335895890
   19    -0.00000000000000     0.00000269213222
   20     0.00000367178177    -0.00000000000001
   21    -0.03832162574829     0.00000000000007
   22    -0.00000444562397    -0.00000000000000
   23     0.11913789141942    -0.00000000000021



  ## CPHF Coefficients for B(2) (Symmetry 0) ##
  Irrep: 1 Size: 23 x 12

                 1                   2                   3                   4                   5

    1     0.00000000000000     0.00000000000000    -0.00000000000001     0.00000000000000    -0.00000000000001
    2    -0.00000000000000    -0.00000000000000    -0.00000000000000    -0.00000000000000     0.00000000000000
    3    -0.00000000059015     0.00002057805979     0.02648300361542    -0.00000041619750    -0.00000170938813
    4     0.00000000000000     0.00000000000000     0.00000000000000     0.00000000000000    -0.00000000000001
    5     0.00000000000000     0.00000000000000     0.00000000000000     0.00000000000000    -0.00000000000000
    6     0.00002143059815     0.02747469678011    -0.00002135169804     0.02147504119551    -0.05212946443664
    7     0.00000000000000     0.00000000000000    -0.00000000000001     0.00000000000000     0.00000000000000
    8    -0.00000000000000    -0.00000000000000     0.00000000000000    -0.00000000000000     0.00000000000000
    9    -0.00000000000000    -0.00000000000000     0.00000000000001    -0.00000000000000     0.00000000000000
   10     0.00000000051061    -0.00001955932561    -0.02505653301276     0.00000027946465     0.00000294581290
   11     0.00000000000000     0.00000000000000     0.00000000000001     0.00000000000000    -0.00000000000000
   12     0.00000000000000    -0.00000000000000     0.00000000000000    -0.00000000000000     0.00000000000001
   13    -0.00000000000000    -0.00000000000001     0.00000000000001    -0.00000000000001     0.00000000000002
   14    -0.00000996258180     0.06196442187856    -0.00004822602804     0.05228006913280    -0.10337855346893
   15    -0.00000000047481     0.00004217570842     0.05405385519150    -0.00000035638900    -0.00000301054959
   16     0.00000000000000     0.00000000000002    -0.00000000000000     0.00000000000002    -0.00000000000004
   17    -0.00000000000000     0.00000000000001     0.00000000000000     0.00000000000000    -0.00000000000001
   18     0.00000000065398    -0.00000617699880    -0.00808162968180     0.00000007451380     0.00000020258939
   19    -0.00003304439007     0.00444397489024    -0.00000370988265     0.02017203310923    -0.03393767715553
   20     0.00000000000000    -0.00000000000000     0.00000000000000    -0.00000000000000     0.00000000000000
   21     0.00000000000000    -0.00000000000000    -0.00000000000000    -0.00000000000001     0.00000000000001
   22    -0.00000000000000    -0.00000000000000    -0.00000000000000    -0.00000000000000     0.00000000000000
   23    -0.00000000000000    -0.00000000000000     0.00000000000000    -0.00000000000000     0.00000000000000

                 6                   7                   8                   9                  10

    1     0.00000000000002    -0.00000152779512    -0.00000000000000    -0.73002091904249     0.00000000000010
    2     0.00000000000001     0.05604291822684     0.00000000000000    -0.00001799304358    -0.00000000000001
    3    -0.05058512044452     0.00000000000009     0.00000074242427    -0.00000000000026     0.03242744306899
    4    -0.00000000000000     0.00069153808515    -0.00000000000000     0.28198853851765    -0.00000000000004
    5    -0.00000000000001    -0.21035465080883     0.00000000000000     0.00093090851927     0.00000000000001
    6     0.00000122451924    -0.00000000000001    -0.01015617964397     0.00000000000009    -0.00000005507441
    7     0.00000000000001     0.38910205522074    -0.00000000000001     0.00000004380661    -0.00000000000000
    8    -0.00000000000000     0.00000134874436     0.00000000000000    -0.33865765264119     0.00000000000005
    9    -0.00000000000005    -0.04783595432499     0.00000000000000    -0.00000670149469     0.00000000000001
   10     0.12472442110523    -0.00000000000003    -0.00000027957161     0.00000000000002    -0.03374259084852
   11    -0.00000000000007    -0.00000347063238    -0.00000000000000     0.04223510986552     0.00000000000001
   12    -0.00000000000000    -0.02877462972291    -0.00000000000000     0.00000116808222     0.00000000000000
   13    -0.00000000000001    -0.00000004129906    -0.00000000000000    -0.06162974658243     0.00000000000001
   14     0.00000297773558     0.00000000000003     0.01222420088969    -0.00000000000003    -0.00000008007445
   15    -0.10160421906748     0.00000000000000     0.00000065083756     0.00000000000002     0.03313758734732
   16     0.00000000000000    -0.07049239736360     0.00000000000001     0.00000042047877    -0.00000000000000
   17    -0.00000000000000    -0.00000009296765    -0.00000000000000     0.09734731202989    -0.00000000000001
   18     0.00531793930705     0.00000000000001     0.00000027483395     0.00000000000001     0.03229707032218
   19     0.00000165285823     0.00000000000000     0.02147470178430    -0.00000000000001     0.00000055595315
   20    -0.00000000000000     0.04915404627278    -0.00000000000000     0.00000333968604    -0.00000000000000
   21     0.00000000000000     0.00000206171063    -0.00000000000000    -0.07441526255858     0.00000000000001
   22     0.00000000000000    -0.02854367732531     0.00000000000000     0.00000054455298    -0.00000000000000
   23    -0.00000000000000    -0.00000002838065    -0.00000000000000    -0.00272653582104     0.00000000000000

                11                  12

    1     0.00001389560057     0.00000000000003
    2     0.08845559664127    -0.00000000000016
    3    -0.00000000000008     0.00000310222793
    4    -0.00129480987401     0.00000000000001
    5     0.39078227110776    -0.00000000000067
    6     0.00000000000011     0.05679172225188
    7    -0.27668509824039     0.00000000000048
    8     0.00000647985893     0.00000000000000
    9     0.12135512830299    -0.00000000000021
   10     0.00000000000005     0.00000003023626
   11     0.00001387189910    -0.00000000000000
   12     0.05888839612103    -0.00000000000010
   13     0.00000116083739     0.00000000000000
   14    -0.00000000000002    -0.00327584347411
   15    -0.00000000000001     0.00000137377726
   16     0.03308249655110    -0.00000000000006
   17    -0.00000208589209     0.00000000000000
   18    -0.00000000000000     0.00000155538845
   19    -0.00000000000009    -0.05299651500998
   20    -0.03282490087368     0.00000000000006
   21    -0.00000004622301     0.00000000000001
   22     0.02885556499183    -0.00000000000005
   23     0.00000013527752     0.00000000000000



  Irrep: 1 Size: 7 x 3

                 1                   2                   3

    1     0.00000000000000     0.00000000000000     1.61193639000000
    2     0.00000000000000    -1.38138904000000    -0.70621430400000
    3     0.00000000000000     1.38139057000000    -0.70625141200000
    4    -1.74897659000000    -2.37947253000000    -1.10195390000000
    5     1.74897659000000    -2.37947253000000    -1.10195390000000
    6     1.74897659000000     2.37946343000000    -1.10201782000000
    7    -1.74897659000000     2.37946343000000    -1.10201782000000



  ## AAT Electronic Component (Symmetry 0) ##
  Irrep: 1 Size: 21 x 3

                 1                   2                   3

    1    -0.00000000000000     1.03548239017100    -0.00001299931538
    2    -1.24259312297644     0.00000000000000    -0.00000000000000
    3    -0.00000060690951    -0.00000000000001    -0.00000000000000
    4     0.00000000000000    -0.80654038353448     1.68428833486017
    5     0.58788856079309     0.00000000000000    -0.00000000000004
    6    -1.06163426399841     0.00000000000002    -0.00000000000001
    7     0.00000000000000    -0.80657579305396    -1.68427764453402
    8     0.58791476850415    -0.00000000000000    -0.00000000000000
    9     1.06162451041207     0.00000000000001     0.00000000000000
   10    -0.00850279575161    -0.15277517486887     0.27022909447965
   11     0.03756372950525     0.04265588704115    -0.11871297040090
   12    -0.10144868591782     0.09778077224214    -0.05111564952958
   13     0.00850279575161    -0.15277517486890     0.27022909447971
   14     0.03756372950526    -0.04265588704115     0.11871297040091
   15    -0.10144868591785    -0.09778077224216     0.05111564952957
   16    -0.00850463636825    -0.15278040319707    -0.27022798371197
   17     0.03756504230349     0.04265574293281     0.11870955654256
   18     0.10144485316352    -0.09777673458431    -0.05111433205048
   19     0.00850463636825    -0.15278040319708    -0.27022798371200
   20     0.03756504230349    -0.04265574293281    -0.11870955654256
   21     0.10144485316353     0.09777673458431     0.05111433205048



  ## AAT Nuclear Component (Symmetry 0) ##
  Irrep: 1 Size: 21 x 3

                 1                   2                   3

    1     0.00000000000000     3.22387278000000     0.00000000000000
    2    -3.22387278000000     0.00000000000000     0.00000000000000
    3     0.00000000000000     0.00000000000000     0.00000000000000
    4     0.00000000000000    -1.05932145600000     2.07208356000000
    5     1.05932145600000     0.00000000000000     0.00000000000000
    6    -2.07208356000000     0.00000000000000     0.00000000000000
    7     0.00000000000000    -1.05937711800000    -2.07208585500000
    8     1.05937711800000     0.00000000000000     0.00000000000000
    9     2.07208585500000     0.00000000000000     0.00000000000000
   10     0.00000000000000    -0.27548847500000     0.59486813250000
   11     0.27548847500000     0.00000000000000    -0.43724414750000
   12    -0.59486813250000     0.43724414750000     0.00000000000000
   13     0.00000000000000    -0.27548847500000     0.59486813250000
   14     0.27548847500000     0.00000000000000     0.43724414750000
   15    -0.59486813250000    -0.43724414750000     0.00000000000000
   16     0.00000000000000    -0.27550445500000    -0.59486585750000
   17     0.27550445500000     0.00000000000000     0.43724414750000
   18     0.59486585750000    -0.43724414750000     0.00000000000000
   19     0.00000000000000    -0.27550445500000    -0.59486585750000
   20     0.27550445500000     0.00000000000000    -0.43724414750000
   21     0.59486585750000     0.43724414750000     0.00000000000000



  ## AAT Total (Symmetry 0) ##
  Irrep: 1 Size: 21 x 3

                 1                   2                   3

    1    -0.00000000000000     4.25935517017100    -0.00001299931538
    2    -4.46646590297644     0.00000000000000    -0.00000000000000
    3    -0.00000060690951    -0.00000000000001    -0.00000000000000
    4     0.00000000000000    -1.86586183953448     3.75637189486017
    5     1.64721001679309     0.00000000000000    -0.00000000000004
    6    -3.13371782399841     0.00000000000002    -0.00000000000001
    7     0.00000000000000    -1.86595291105396    -3.75636349953402
    8     1.64729188650415    -0.00000000000000    -0.00000000000000
    9     3.13371036541207     0.00000000000001     0.00000000000000
   10    -0.00850279575161    -0.42826364986887     0.86509722697965
   11     0.31305220450525     0.04265588704115    -0.55595711790090
   12    -0.69631681841782     0.53502491974214    -0.05111564952958
   13     0.00850279575161    -0.42826364986890     0.86509722697971
   14     0.31305220450526    -0.04265588704115     0.55595711790091
   15    -0.69631681841785    -0.53502491974216     0.05111564952957
   16    -0.00850463636825    -0.42828485819707    -0.86509384121197
   17     0.31306949730349     0.04265574293281     0.55595370404256
   18     0.69631071066352    -0.53502088208431    -0.05111433205048
   19     0.00850463636825    -0.42828485819708    -0.86509384121200
   20     0.31306949730349    -0.04265574293281    -0.55595370404256
   21     0.69631071066353     0.53502088208431     0.05111433205048




    Psi4 stopped on: Saturday, 31 October 2020 09:46PM
    Psi4 wall time for execution: 0:00:14.83

*** Psi4 exiting successfully. Buy a developer a beer!
