
    -----------------------------------------------------------------------
          Psi4: An Open-Source Ab Initio Electronic Structure Package
                               Psi4 undefined 

                         Git: Rev {master} 91a87a5 dirty


    D. G. A. Smith, L. A. Burns, A. C. Simmonett, R. M. Parrish,
    M. C. Schieber, R. Galvelis, P. Kraus, H. Kruse, R. Di Remigio,
    A. Alenaizan, A. M. James, S. Lehtola, J. P. Misiewicz, M. Scheurer,
    R. A. Shaw, J. B. Schriber, Y. Xie, Z. L. Glick, D. A. Sirianni,
    J. S. O'Brien, J. M. Waldrop, A. Kumar, E. G. Hohenstein,
    B. P. Pritchard, B. R. Brooks, H. F. Schaefer III, A. Yu. Sokolov,
    K. Patkowski, A. E. DePrince III, U. Bozkaya, R. A. King,
    F. A. Evangelista, J. M. Turney, T. D. Crawford, C. D. Sherrill,
    J. Chem. Phys. 152(18) 184108 (2020). https://doi.org/10.1063/5.0006002

                            Additional Code Authors
    E. T. Seidl, C. L. Janssen, E. F. Valeev, M. L. Leininger,
    J. F. Gonthier, R. M. Richard, H. R. McAlexander, M. Saitow, X. Wang,
    P. Verma, and M. H. Lechner

             Previous Authors, Complete List of Code Contributors,
                       and Citations for Specific Modules
    https://github.com/psi4/psi4/blob/master/codemeta.json
    https://github.com/psi4/psi4/graphs/contributors
    http://psicode.org/psi4manual/master/introduction.html#citing-psifour

    -----------------------------------------------------------------------


    Psi4 started on: Sunday, 01 November 2020 03:47PM

    Process ID: 49887
    Host:       ganymede.local
    PSIDATADIR: /Users/crawdad/share/psi4
    Memory:     500.0 MiB
    Threads:    1
    
  ==> Input File <==

--------------------------------------------------------------------------
# PYTHONPATH must include directory above plugin directory.
#     Define either externally or here, then import plugin.
sys.path.insert(0, './../..')
import vcd

molecule ethylene_oxide {
O       0.0000000000        0.0000000000        1.6119363900
C       0.0000000000       -1.3813890400       -0.7062143040
C       0.0000000000        1.3813905700       -0.7062514120
H      -1.7489765900       -2.3794725300       -1.1019539000
H       1.7489765900       -2.3794725300       -1.1019539000
H       1.7489765900        2.3794634300       -1.1020178200
H      -1.7489765900        2.3794634300       -1.1020178200
symmetry c1
no_reorient
no_com
units bohr
}

set {
  basis 4-31g
  freeze_core false
  dertype none
  e_convergence 13
  r_convergence 13
  r_convergence 13
  scf_type pk
  print_mos true
}

gradient('mp2')
--------------------------------------------------------------------------

Scratch directory: /tmp/
gradient() will perform analytic gradient computation.

*** tstart() called on ganymede.local
*** at Sun Nov  1 15:47:31 2020

   => Loading Basis Set <=

    Name: 4-31G
    Role: ORBITAL
    Keyword: BASIS
    atoms 1   entry O          line    38 file /Users/crawdad/src/vcd/amos/4-31g.gbs 
    atoms 2-3 entry C          line    25 file /Users/crawdad/src/vcd/amos/4-31g.gbs 
    atoms 4-7 entry H          line    17 file /Users/crawdad/src/vcd/amos/4-31g.gbs 


         ---------------------------------------------------------
                                   SCF
               by Justin Turney, Rob Parrish, Andy Simmonett
                          and Daniel G. A. Smith
                              RHF Reference
                        1 Threads,    500 MiB Core
         ---------------------------------------------------------

  ==> Geometry <==

    Molecular point group: c1
    Full point group: Cs

    Geometry (in Bohr), charge = 0, multiplicity = 1:

       Center              X                  Y                   Z               Mass       
    ------------   -----------------  -----------------  -----------------  -----------------
         O            0.000000000000     0.000000000000     1.611936390000    15.994914619570
         C            0.000000000000    -1.381389040000    -0.706214304000    12.000000000000
         C            0.000000000000     1.381390570000    -0.706251412000    12.000000000000
         H           -1.748976590000    -2.379472530000    -1.101953900000     1.007825032230
         H            1.748976590000    -2.379472530000    -1.101953900000     1.007825032230
         H            1.748976590000     2.379463430000    -1.102017820000     1.007825032230
         H           -1.748976590000     2.379463430000    -1.102017820000     1.007825032230

  Running in c1 symmetry.

  Rotational constants: A =      0.85079  B =      0.74363  C =      0.47383 [cm^-1]
  Rotational constants: A =  25506.01012  B =  22293.46651  C =  14205.14003 [MHz]
  Nuclear repulsion =   75.369053384843525

  Charge       = 0
  Multiplicity = 1
  Electrons    = 24
  Nalpha       = 12
  Nbeta        = 12

  ==> Algorithm <==

  SCF Algorithm Type is PK.
  DIIS enabled.
  MOM disabled.
  Fractional occupation disabled.
  Guess Type is SAD.
  Energy threshold   = 1.00e-13
  Density threshold  = 1.00e-10
  Integral threshold = 0.00e+00

  ==> Primary Basis <==

  Basis Set: 4-31G
    Blend: 4-31G
    Number of shells: 23
    Number of basis function: 35
    Number of Cartesian functions: 35
    Spherical Harmonics?: false
    Max angular momentum: 1

  ==> Integral Setup <==

  Using in-core PK algorithm.
   Calculation information:
      Number of atoms:                   7
      Number of AO shells:              23
      Number of primitives:             52
      Number of atomic orbitals:        35
      Number of basis functions:        35

      Integral cutoff                 1.00e-12
      Number of threads:                 1

  Performing in-core PK
  Using 397530 doubles for integral storage.
  We computed 38174 shell quartets total.
  Whereas there are 38226 unique shell quartets.

  ==> DiskJK: Disk-Based J/K Matrices <==

    J tasked:                  Yes
    K tasked:                  Yes
    wK tasked:                  No
    Memory [MiB]:              375
    Schwarz Cutoff:          1E-12

    OpenMP threads:              1

  Minimum eigenvalue in the overlap matrix is 1.0404266040E-02.
  Reciprocal condition number of the overlap matrix is 2.1934368179E-03.
    Using symmetric orthogonalization.

  ==> Pre-Iterations <==

  SCF Guess: Superposition of Atomic Densities via on-the-fly atomic UHF (no occupation information).

   -------------------------
    Irrep   Nso     Nmo    
   -------------------------
     A         35      35 
   -------------------------
    Total      35      35
   -------------------------

  ==> Iterations <==

                        Total Energy        Delta E     RMS |[F,P]|

   @RHF iter SAD:  -152.15386787494998   -1.52154e+02   0.00000e+00 
   @RHF iter   1:  -152.58458653024692   -4.30719e-01   7.65183e-03 DIIS
   @RHF iter   2:  -152.61443047002163   -2.98439e-02   4.75071e-03 DIIS
   @RHF iter   3:  -152.62441720646603   -9.98674e-03   7.79081e-04 DIIS
   @RHF iter   4:  -152.62493875310534   -5.21547e-04   1.08714e-04 DIIS
   @RHF iter   5:  -152.62495185356792   -1.31005e-05   3.25799e-05 DIIS
   @RHF iter   6:  -152.62495293765224   -1.08408e-06   8.75308e-06 DIIS
   @RHF iter   7:  -152.62495304599523   -1.08343e-07   1.17670e-06 DIIS
   @RHF iter   8:  -152.62495304809434   -2.09911e-09   1.53519e-07 DIIS
   @RHF iter   9:  -152.62495304813976   -4.54179e-11   3.11885e-08 DIIS
   @RHF iter  10:  -152.62495304814138   -1.62004e-12   4.61859e-09 DIIS
   @RHF iter  11:  -152.62495304814152   -1.42109e-13   1.30688e-09 DIIS
   @RHF iter  12:  -152.62495304814144    8.52651e-14   2.40981e-10 DIIS
   @RHF iter  13:  -152.62495304814135    8.52651e-14   5.27089e-11 DIIS
  Energy and wave function converged.


  ==> Post-Iterations <==

    Orbital Energies [Eh]
    ---------------------

    Doubly Occupied:                                                      

       1A    -20.538482     2A    -11.272393     3A    -11.271964  
       4A     -1.431790     5A     -0.936788     6A     -0.867470  
       7A     -0.717235     8A     -0.653646     9A     -0.549512  
      10A     -0.539827    11A     -0.450508    12A     -0.450131  

    Virtual:                                                              

      13A      0.242437    14A      0.273485    15A      0.278722  
      16A      0.303790    17A      0.304762    18A      0.358267  
      19A      0.466279    20A      0.762609    21A      0.863637  
      22A      0.876191    23A      0.878488    24A      0.954285  
      25A      1.029942    26A      1.137755    27A      1.172086  
      28A      1.209452    29A      1.265583    30A      1.373029  
      31A      1.387829    32A      1.427909    33A      1.457878  
      34A      1.790301    35A      2.156192  

    Final Occupation by Irrep:
              A 
    DOCC [    12 ]

  @RHF Final Energy:  -152.62495304814135

   => Energetics <=

    Nuclear Repulsion Energy =             75.3690533848435251
    One-Electron Energy =                -356.6285216818105823
    Two-Electron Energy =                 128.6345152488256929
    Total Energy =                       -152.6249530481413501

Computation Completed


Properties will be evaluated at   0.000000,   0.000000,   0.000000 [a0]

Properties computed using the SCF density matrix

  Nuclear Dipole Moment: [e a0]
     X:     0.0000      Y:    -0.0000      Z:     0.0128

  Electronic Dipole Moment: [e a0]
     X:    -0.0000      Y:     0.0000      Z:    -1.1398

  Dipole Moment: [e a0]
     X:    -0.0000      Y:    -0.0000      Z:    -1.1271     Total:     1.1271

  Dipole Moment: [D]
     X:    -0.0000      Y:    -0.0000      Z:    -2.8647     Total:     2.8647


  ==> Molecular Orbitals <==

                            1            2            3            4            5

 1    O1 s          0.9919872    0.0000838   -0.0000001    0.1825134    0.1220664
 2    O1 s          0.0526021    0.0003897   -0.0000002   -0.3598322   -0.2425136
 3    O1 px         0.0000000   -0.0000000    0.0000000    0.0000000    0.0000000
 4    O1 py        -0.0000000   -0.0000005   -0.0006475    0.0000029    0.0000039
 5    O1 pz        -0.0035982    0.0000054   -0.0000001    0.1300904   -0.1037669
 6    O1 s         -0.0313440    0.0028612   -0.0000025   -0.4738554   -0.4511903
 7    O1 px        -0.0000000    0.0000000   -0.0000000    0.0000000    0.0000000
 8    O1 py         0.0000002    0.0000034    0.0044233    0.0000016    0.0000027
 9    O1 pz         0.0100001    0.0016962   -0.0000013    0.1085190   -0.0125063
 10   C2 s         -0.0000547    0.7018960   -0.7032197    0.0819337   -0.1214121
 11   C2 s         -0.0004829    0.0396406   -0.0430970   -0.1444102    0.2120567
 12   C2 px         0.0000000    0.0000000   -0.0000000    0.0000000    0.0000000
 13   C2 py         0.0003764    0.0000961   -0.0014056   -0.0852053    0.0518279
 14   C2 pz         0.0012343    0.0008613   -0.0005058   -0.0745447   -0.0906219
 15   C2 s          0.0080603   -0.0209494    0.0430347   -0.0554032    0.2772558
 16   C2 px        -0.0000000   -0.0000000    0.0000000   -0.0000000    0.0000000
 17   C2 py         0.0019091    0.0015199    0.0091992    0.0076878    0.0199466
 18   C2 pz         0.0047853   -0.0004159    0.0011259    0.0193664   -0.0246013
 19   C3 s         -0.0000547    0.7029856    0.7021304    0.0819312   -0.1214184
 20   C3 s         -0.0004829    0.0397073    0.0430354   -0.1444057    0.2120674
 21   C3 px        -0.0000000   -0.0000000   -0.0000000    0.0000000    0.0000000
 22   C3 py        -0.0003764   -0.0000983   -0.0014054    0.0852026   -0.0518257
 23   C3 pz         0.0012343    0.0008621    0.0005045   -0.0745420   -0.0906174
 24   C3 s          0.0080595   -0.0210159   -0.0430019   -0.0554037    0.2772684
 25   C3 px         0.0000000    0.0000000   -0.0000000    0.0000000   -0.0000000
 26   C3 py        -0.0019088   -0.0015057    0.0092015   -0.0076866   -0.0199459
 27   C3 pz         0.0047850   -0.0004175   -0.0011254    0.0193650   -0.0246016
 28   H4 s         -0.0007106   -0.0010113   -0.0000178   -0.0240054    0.0927084
 29   H4 s         -0.0001454    0.0055782   -0.0050561    0.0037030    0.0223824
 30   H5 s         -0.0007106   -0.0010113   -0.0000178   -0.0240054    0.0927084
 31   H5 s         -0.0001454    0.0055782   -0.0050561    0.0037030    0.0223824
 32   H6 s         -0.0007105   -0.0010112    0.0000194   -0.0240047    0.0927140
 33   H6 s         -0.0001454    0.0055860    0.0050475    0.0037029    0.0223840
 34   H7 s         -0.0007105   -0.0010112    0.0000194   -0.0240047    0.0927140
 35   H7 s         -0.0001454    0.0055860    0.0050475    0.0037029    0.0223840

            Ene   -20.5384817  -11.2723932  -11.2719637   -1.4317904   -0.9367880
            Sym             A            A            A            A            A
            Occ             2            2            2            2            2


                            6            7            8            9           10

 1    O1 s         -0.0000041   -0.0000000    0.0544217   -0.0000000   -0.0000021
 2    O1 s          0.0000076    0.0000000   -0.1200179    0.0000000    0.0000043
 3    O1 px         0.0000000    0.2734454    0.0000000    0.0000107    0.0000000
 4    O1 py         0.1855342   -0.0000000    0.0000014    0.0000000    0.4750446
 5    O1 pz         0.0000041    0.0000000   -0.3076349    0.0000000    0.0000147
 6    O1 s          0.0000170    0.0000000   -0.1887085    0.0000000    0.0000085
 7    O1 px         0.0000000    0.1649775    0.0000000    0.0000078   -0.0000000
 8    O1 py         0.0847866    0.0000000    0.0000010    0.0000000    0.3303860
 9    O1 pz         0.0000001    0.0000000   -0.2124307    0.0000000    0.0000106
 10   C2 s          0.1283813   -0.0000000    0.0082740   -0.0000000   -0.0063753
 11   C2 s         -0.2118334   -0.0000000    0.0099845    0.0000000    0.0248642
 12   C2 px         0.0000000    0.2795433    0.0000000    0.3071213   -0.0000000
 13   C2 py         0.1114314   -0.0000000    0.3089110   -0.0000000   -0.1020554
 14   C2 pz        -0.0301562   -0.0000000    0.0871121   -0.0000000   -0.2314790
 15   C2 s         -0.3714021    0.0000000   -0.0771123   -0.0000000   -0.0735872
 16   C2 px        -0.0000000    0.1567097   -0.0000000    0.2197316   -0.0000000
 17   C2 py         0.0064486    0.0000000    0.1178948   -0.0000000   -0.0955936
 18   C2 pz        -0.0104860    0.0000000    0.0042026   -0.0000000   -0.1492309
 19   C3 s         -0.1283767    0.0000000    0.0082747    0.0000000    0.0063749
 20   C3 s          0.2118247   -0.0000000    0.0099822   -0.0000000   -0.0248669
 21   C3 px        -0.0000000    0.2795393   -0.0000000   -0.3071302    0.0000000
 22   C3 py         0.1114312    0.0000000   -0.3089080   -0.0000000   -0.1020646
 23   C3 pz         0.0301567   -0.0000000    0.0871192    0.0000000    0.2314609
 24   C3 s          0.3713905   -0.0000000   -0.0771111    0.0000000    0.0735943
 25   C3 px         0.0000000    0.1567065    0.0000000   -0.2197355    0.0000000
 26   C3 py         0.0064486    0.0000000   -0.1178954   -0.0000000   -0.0956015
 27   C3 pz         0.0104874   -0.0000000    0.0042070    0.0000000    0.1492277
 28   H4 s         -0.1271875   -0.1270042   -0.1090699   -0.1896561    0.0881071
 29   H4 s         -0.0446757   -0.0590060   -0.0782352   -0.1307592    0.0664398
 30   H5 s         -0.1271875    0.1270042   -0.1090699    0.1896561    0.0881071
 31   H5 s         -0.0446757    0.0590060   -0.0782352    0.1307592    0.0664398
 32   H6 s          0.1271832    0.1270029   -0.1090706   -0.1896622   -0.0881091
 33   H6 s          0.0446746    0.0590059   -0.0782354   -0.1307645   -0.0664403
 34   H7 s          0.1271832   -0.1270029   -0.1090706    0.1896622   -0.0881091
 35   H7 s          0.0446746   -0.0590059   -0.0782354    0.1307645   -0.0664403

            Ene    -0.8674695   -0.7172352   -0.6536456   -0.5495120   -0.5398270
            Sym             A            A            A            A            A
            Occ             2            2            2            2            2


                           11           12           13           14           15

 1    O1 s         -0.0000000    0.0378687    0.0027447   -0.0000043    0.0000000
 2    O1 s          0.0000000   -0.0991189   -0.0015352    0.0000046   -0.0000000
 3    O1 px         0.5764629    0.0000000   -0.0000000   -0.0000000    0.0967322
 4    O1 py        -0.0000000    0.0000162   -0.0000064    0.1948138    0.0000000
 5    O1 pz         0.0000000   -0.3560551    0.0358598   -0.0000182    0.0000000
 6    O1 s          0.0000000   -0.0958416    0.0133463    0.0000601   -0.0000000
 7    O1 px         0.4907669    0.0000000   -0.0000000   -0.0000000    0.2479229
 8    O1 py        -0.0000000    0.0000130   -0.0000084    0.2995596    0.0000000
 9    O1 pz         0.0000000   -0.3346516    0.0282772   -0.0000429    0.0000000
 10   C2 s         -0.0000000    0.0065771   -0.0864872    0.0841283    0.0000000
 11   C2 s         -0.0000000    0.0086997    0.0632044   -0.0347729   -0.0000000
 12   C2 px        -0.1373148   -0.0000000   -0.0000000    0.0000000   -0.2470456
 13   C2 py         0.0000000   -0.2297120   -0.1156451   -0.0780660   -0.0000000
 14   C2 pz        -0.0000000    0.2574858   -0.0366928    0.2345854    0.0000000
 15   C2 s          0.0000000   -0.0861028    1.3437863   -1.3460328   -0.0000000
 16   C2 px        -0.0501706   -0.0000000   -0.0000000    0.0000000   -0.8386167
 17   C2 py         0.0000000   -0.1752593   -0.5191016   -0.3418173   -0.0000000
 18   C2 pz        -0.0000000    0.1387195   -0.1476276    0.6659502    0.0000000
 19   C3 s         -0.0000000    0.0065773   -0.0864881   -0.0841246   -0.0000000
 20   C3 s         -0.0000000    0.0086977    0.0632066    0.0347695    0.0000000
 21   C3 px        -0.1373028   -0.0000000    0.0000000    0.0000000   -0.2470469
 22   C3 py        -0.0000000    0.2297141    0.1156486   -0.0780559   -0.0000000
 23   C3 pz        -0.0000000    0.2574971   -0.0366829   -0.2345990   -0.0000000
 24   C3 s          0.0000000   -0.0860920    1.3437905    1.3460220    0.0000000
 25   C3 px        -0.0501598   -0.0000000    0.0000000    0.0000000   -0.8386205
 26   C3 py        -0.0000000    0.1752566    0.5191125   -0.3417863   -0.0000000
 27   C3 pz        -0.0000000    0.1387322   -0.1476137   -0.6660180   -0.0000000
 28   H4 s          0.1126426    0.0476987   -0.0236354    0.0163195   -0.0322237
 29   H4 s          0.1179421    0.0395121   -0.9350581    0.5848041   -1.0592467
 30   H5 s         -0.1126426    0.0476987   -0.0236354    0.0163195    0.0322237
 31   H5 s         -0.1179421    0.0395121   -0.9350581    0.5848041    1.0592467
 32   H6 s         -0.1126332    0.0476930   -0.0236355   -0.0163201    0.0322239
 33   H6 s         -0.1179342    0.0395078   -0.9350655   -0.5848299    1.0592534
 34   H7 s          0.1126332    0.0476930   -0.0236355   -0.0163201   -0.0322239
 35   H7 s          0.1179342    0.0395078   -0.9350655   -0.5848299   -1.0592534

            Ene    -0.4505084   -0.4501308    0.2424367    0.2734849    0.2787216
            Sym             A            A            A            A            A
            Occ             2            2            0            0            0


                           16           17           18           19           20

 1    O1 s          0.0983539    0.0003250    0.0000000    0.0000023    0.0181176
 2    O1 s         -0.1013227   -0.0003337   -0.0000000    0.0000001   -0.1518618
 3    O1 px        -0.0000000   -0.0000000   -0.0000009   -0.0000000    0.0000000
 4    O1 py        -0.0008655    0.2633289    0.0000000    0.1883676   -0.0000001
 5    O1 pz         0.3214036    0.0010576    0.0000000    0.0000041    0.1778304
 6    O1 s         -1.4376920   -0.0047634    0.0000000   -0.0000683    0.7046036
 7    O1 px        -0.0000000   -0.0000000   -0.0000061   -0.0000000   -0.0000000
 8    O1 py        -0.0016168    0.4934196    0.0000000    0.6600287    0.0000174
 9    O1 pz         0.8488701    0.0028032    0.0000000    0.0000281   -0.1827418
 10   C2 s         -0.0587379   -0.0769719   -0.0000000   -0.0905873    0.0098078
 11   C2 s          0.0415907    0.0665798    0.0000000    0.0327244    0.1510818
 12   C2 px         0.0000000    0.0000000    0.2510539   -0.0000000    0.0000000
 13   C2 py         0.1087364   -0.1691996   -0.0000000    0.1880713    0.6175872
 14   C2 pz         0.1285392    0.1491346    0.0000000    0.1305195    0.1716485
 15   C2 s          0.5367656    1.0458223    0.0000000    2.0487152    0.2152885
 16   C2 px         0.0000000    0.0000000    1.3776470   -0.0000000   -0.0000000
 17   C2 py         0.3410445   -0.5465959    0.0000000    2.1496374   -1.0586778
 18   C2 pz         0.8178791    0.3569605    0.0000000    0.5920923   -0.3485128
 19   C3 s         -0.0592565    0.0765801   -0.0000000    0.0905840    0.0098079
 20   C3 s          0.0420399   -0.0663040    0.0000000   -0.0327253    0.1510854
 21   C3 px         0.0000000    0.0000000   -0.2510518    0.0000000   -0.0000000
 22   C3 py        -0.1076367   -0.1699104    0.0000000    0.1880678   -0.6175948
 23   C3 pz         0.1295104   -0.1482860   -0.0000000   -0.1305303    0.1716762
 24   C3 s          0.5437978   -1.0422000    0.0000000   -2.0486553    0.2152545
 25   C3 px         0.0000000    0.0000000   -1.3776397    0.0000000    0.0000000
 26   C3 py        -0.3375054   -0.5488276    0.0000000    2.1496036    1.0587166
 27   C3 pz         0.8201428   -0.3515324   -0.0000000   -0.5920865   -0.3485775
 28   H4 s          0.0202840   -0.0067683   -0.0094380    0.0923880   -0.2143632
 29   H4 s          0.0051174   -0.8117612    1.3379316    0.4042115   -0.0672343
 30   H5 s          0.0202840   -0.0067683    0.0094380    0.0923880   -0.2143632
 31   H5 s          0.0051174   -0.8117612   -1.3379316    0.4042115   -0.0672343
 32   H6 s          0.0202379    0.0069044   -0.0094377   -0.0923820   -0.2143741
 33   H6 s         -0.0002747    0.8117458    1.3379239   -0.4042218   -0.0672386
 34   H7 s          0.0202379    0.0069044    0.0094377   -0.0923820   -0.2143741
 35   H7 s         -0.0002747    0.8117458   -1.3379239   -0.4042218   -0.0672386

            Ene     0.3037903    0.3047616    0.3582675    0.4662786    0.7626094
            Sym             A            A            A            A            A
            Occ             0            0            0            0            0


                           21           22           23           24           25

 1    O1 s         -0.0000021   -0.0000000    0.0326793    0.0000014    0.0343622
 2    O1 s          0.0000258    0.0000000   -0.2238135   -0.0000052   -0.2146577
 3    O1 px         0.0000000    0.2588702    0.0000000   -0.0000000    0.0000000
 4    O1 py         0.1072257   -0.0000000    0.0000151    0.2053208    0.0000009
 5    O1 pz        -0.0000392   -0.0000000    0.3067000    0.0000075   -0.2806651
 6    O1 s         -0.0000561   -0.0000000    0.4074465    0.0000043   -0.4386394
 7    O1 px         0.0000000    0.1641556    0.0000000   -0.0000000   -0.0000000
 8    O1 py        -0.2256285    0.0000000   -0.0000219    0.1065021    0.0000043
 9    O1 pz         0.0000160   -0.0000000    0.0464697    0.0000059    0.3913777
 10   C2 s         -0.0216096    0.0000000   -0.0257020   -0.0635517   -0.0558948
 11   C2 s          0.2087436   -0.0000000    0.0551821    0.2507659   -0.5091960
 12   C2 px         0.0000000    0.3737861    0.0000000   -0.0000000    0.0000000
 13   C2 py         0.1843098    0.0000000   -0.2277987    0.6865212   -0.2632414
 14   C2 pz         0.7278434   -0.0000000    0.7302512   -0.2805281   -0.1533103
 15   C2 s         -0.5489452    0.0000000   -0.1035649   -0.4411729    0.9206623
 16   C2 px        -0.0000000   -0.9152051   -0.0000000    0.0000000   -0.0000000
 17   C2 py        -0.6032851    0.0000000    0.2668522   -1.0167103    0.0846727
 18   C2 pz        -1.1226896    0.0000000   -0.5972422    0.3676545    0.2396307
 19   C3 s          0.0216160    0.0000000   -0.0256972    0.0635515   -0.0558940
 20   C3 s         -0.2087485    0.0000000    0.0551259   -0.2507462   -0.5092125
 21   C3 px         0.0000000    0.3737908    0.0000000   -0.0000000   -0.0000000
 22   C3 py         0.1842106   -0.0000000    0.2278411    0.6865214    0.2632576
 23   C3 pz        -0.7280400   -0.0000000    0.7300278    0.2805527   -0.1533082
 24   C3 s          0.5489884   -0.0000000   -0.1034500    0.4411644    0.9206809
 25   C3 px        -0.0000000   -0.9152184   -0.0000000    0.0000000    0.0000000
 26   C3 py        -0.6031669    0.0000000   -0.2669659   -1.0167154   -0.0846928
 27   C3 pz         1.1228739   -0.0000000   -0.5969269   -0.3676553    0.2396059
 28   H4 s         -0.1600112   -0.4676227   -0.0845624   -0.2763401   -0.5527758
 29   H4 s         -0.0599709   -0.1101880    0.0350564   -0.0318402    0.1111064
 30   H5 s         -0.1600112    0.4676227   -0.0845624   -0.2763401   -0.5527758
 31   H5 s         -0.0599709    0.1101880    0.0350564   -0.0318402    0.1111064
 32   H6 s          0.1600277    0.4676288   -0.0845349    0.2763480   -0.5527760
 33   H6 s          0.0599611    0.1101881    0.0350689    0.0318347    0.1111088
 34   H7 s          0.1600277   -0.4676288   -0.0845349    0.2763480   -0.5527760
 35   H7 s          0.0599611   -0.1101881    0.0350689    0.0318347    0.1111088

            Ene     0.8636372    0.8761907    0.8784878    0.9542847    1.0299425
            Sym             A            A            A            A            A
            Occ             0            0            0            0            0


                           26           27           28           29           30

 1    O1 s          0.0000000   -0.0000000    0.0000002    0.0361762   -0.0000000
 2    O1 s          0.0000000   -0.0000000   -0.0000039   -0.2110324    0.0000000
 3    O1 px        -0.0000033    0.2327086   -0.0000000    0.0000000    0.9176454
 4    O1 py        -0.0000000    0.0000000    0.2518735   -0.0000072   -0.0000000
 5    O1 pz        -0.0000000    0.0000000    0.0000013   -0.5008683    0.0000000
 6    O1 s         -0.0000000    0.0000000    0.0000061   -0.3244600   -0.0000000
 7    O1 px         0.0000098   -0.4521814    0.0000000   -0.0000000   -1.2302057
 8    O1 py         0.0000000   -0.0000000   -0.2753502    0.0000095    0.0000000
 9    O1 pz         0.0000000   -0.0000000   -0.0000047    0.8341508   -0.0000000
 10   C2 s          0.0000000   -0.0000000   -0.0382936    0.0064093   -0.0000000
 11   C2 s         -0.0000000    0.0000000    0.3103672   -0.9802237    0.0000000
 12   C2 px         0.8761814   -0.7565586    0.0000000   -0.0000000    0.1022067
 13   C2 py         0.0000000   -0.0000000   -0.5779016    0.2263374   -0.0000000
 14   C2 pz         0.0000000   -0.0000000   -0.1255830    0.2450804   -0.0000000
 15   C2 s          0.0000000   -0.0000000   -0.0628916    1.7749569   -0.0000000
 16   C2 px        -2.0606933    1.0896478   -0.0000000    0.0000000    0.2994767
 17   C2 py        -0.0000000    0.0000000    1.1716082   -0.2152210    0.0000000
 18   C2 pz        -0.0000000    0.0000000    0.0824960   -0.0641517    0.0000000
 19   C3 s         -0.0000000    0.0000000    0.0382926    0.0064078   -0.0000000
 20   C3 s         -0.0000000   -0.0000000   -0.3103638   -0.9802381   -0.0000000
 21   C3 px        -0.8761721   -0.7565681    0.0000000    0.0000000    0.1022048
 22   C3 py         0.0000000   -0.0000000   -0.5778953   -0.2263425   -0.0000000
 23   C3 pz         0.0000000    0.0000000    0.1255964    0.2450896    0.0000000
 24   C3 s          0.0000000    0.0000000    0.0628809    1.7749606    0.0000000
 25   C3 px         2.0606726    1.0896661   -0.0000000   -0.0000000    0.2994468
 26   C3 py        -0.0000000    0.0000000    1.1716040    0.2152383    0.0000000
 27   C3 pz        -0.0000000   -0.0000000   -0.0825273   -0.0641716   -0.0000000
 28   H4 s          0.2064517   -0.4108950   -0.5191964    0.2776668    0.2550632
 29   H4 s         -1.1433321    0.9432591    0.7898132   -0.6746452   -0.0851604
 30   H5 s         -0.2064517    0.4108950   -0.5191964    0.2776668   -0.2550632
 31   H5 s          1.1433321   -0.9432591    0.7898132   -0.6746452    0.0851604
 32   H6 s          0.2064507    0.4108961    0.5191900    0.2776695   -0.2550507
 33   H6 s         -1.1433199   -0.9432701   -0.7898074   -0.6746572    0.0851594
 34   H7 s         -0.2064507   -0.4108961    0.5191900    0.2776695    0.2550507
 35   H7 s          1.1433199    0.9432701   -0.7898074   -0.6746572   -0.0851594

            Ene     1.1377552    1.1720860    1.2094518    1.2655828    1.3730295
            Sym             A            A            A            A            A
            Occ             0            0            0            0            0


                           31           32           33           34           35

 1    O1 s         -0.0000000   -0.0000018    0.0302244   -0.0000005    0.0238447
 2    O1 s          0.0000000    0.0000157   -0.3935235    0.0000185   -1.8185904
 3    O1 px         0.0000086    0.0000000    0.0000000   -0.0000000    0.0000000
 4    O1 py        -0.0000000    0.8130196    0.0000340    0.5103023    0.0000072
 5    O1 pz         0.0000000    0.0000287   -0.7017050   -0.0000130    0.3849555
 6    O1 s         -0.0000000   -0.0000366    0.8014495    0.0000162    3.2853404
 7    O1 px         0.0000035   -0.0000000    0.0000000    0.0000000    0.0000000
 8    O1 py         0.0000000   -0.9681640   -0.0000321   -1.6236958   -0.0000490
 9    O1 pz        -0.0000000   -0.0000357    0.8076263    0.0000223   -1.4984419
 10   C2 s         -0.0000000   -0.0303380    0.0492129    0.1198644    0.0270613
 11   C2 s         -0.0000000   -0.9580072    1.1153622    1.5116927   -0.0111005
 12   C2 px         0.1494709   -0.0000000    0.0000000   -0.0000000    0.0000000
 13   C2 py        -0.0000000    0.0499845    0.0070267   -0.0041741   -0.0945827
 14   C2 pz        -0.0000000    0.0562056    0.0781870   -0.0237992   -0.3341524
 15   C2 s         -0.0000000    2.0230998   -1.4917091   -5.1859912   -1.0598488
 16   C2 px        -1.9378103   -0.0000000   -0.0000000    0.0000000   -0.0000000
 17   C2 py        -0.0000000    0.4655768    0.1709547   -1.4764248   -0.2124713
 18   C2 pz         0.0000000   -0.4297865   -0.1380786   -0.5345084   -0.5106665
 19   C3 s         -0.0000000    0.0303315    0.0492152   -0.1198627    0.0270598
 20   C3 s         -0.0000000    0.9578761    1.1154904   -1.5116568   -0.0111375
 21   C3 px        -0.1494624   -0.0000000   -0.0000000    0.0000000   -0.0000000
 22   C3 py        -0.0000000    0.0499792   -0.0070311   -0.0041790    0.0945786
 23   C3 pz        -0.0000000   -0.0562077    0.0781889    0.0238038   -0.3341506
 24   C3 s          0.0000000   -2.0229249   -1.4920029    5.1859212   -1.0596231
 25   C3 px         1.9377898    0.0000000    0.0000000   -0.0000000    0.0000000
 26   C3 py        -0.0000000    0.4656061   -0.1708746   -1.4764315    0.2123922
 27   C3 pz         0.0000000    0.4297837   -0.1380352    0.5345359   -0.5106189
 28   H4 s         -0.7370068    0.0432713   -0.0053897    0.3826870    0.1461019
 29   H4 s         -0.3129982   -0.3987714    0.4398678    0.2781591    0.0147015
 30   H5 s          0.7370068    0.0432713   -0.0053897    0.3826870    0.1461019
 31   H5 s          0.3129982   -0.3987714    0.4398678    0.2781591    0.0147015
 32   H6 s         -0.7370052   -0.0432704   -0.0053920   -0.3826817    0.1460860
 33   H6 s         -0.3129871    0.3987176    0.4399130   -0.2781423    0.0146974
 34   H7 s          0.7370052   -0.0432704   -0.0053920   -0.3826817    0.1460860
 35   H7 s          0.3129871    0.3987176    0.4399130   -0.2781423    0.0146974

            Ene     1.3878287    1.4279088    1.4578784    1.7903015    2.1561919
            Sym             A            A            A            A            A
            Occ             0            0            0            0            0



*** tstop() called on ganymede.local at Sun Nov  1 15:47:32 2020
Module time:
	user time   =       0.59 seconds =       0.01 minutes
	system time =       0.02 seconds =       0.00 minutes
	total time  =          1 seconds =       0.02 minutes
Total time:
	user time   =       0.59 seconds =       0.01 minutes
	system time =       0.02 seconds =       0.00 minutes
	total time  =          1 seconds =       0.02 minutes
 MINTS: Wrapper to libmints.
   by Justin Turney

   Calculation information:
      Number of threads:                 1
      Number of atoms:                   7
      Number of AO shells:              23
      Number of SO shells:              23
      Number of primitives:             52
      Number of atomic orbitals:        35
      Number of basis functions:        35

      Number of irreps:                  1
      Integral cutoff                 0.00e+00
      Number of functions per irrep: [  35 ]

 OEINTS: Overlap, kinetic, potential, dipole, and quadrupole integrals
         stored in file 35.

      Computing two-electron integrals...done
      Computed 165398 non-zero two-electron integrals.
        Stored in file 33.


Reading options from the VCD block
Calling plugin vcd.so.


	*************************
	*                       *
	*          VCD          *
	*                       *
	*************************

	Wave function  = SCF
	Dertype        = FIRST
	Presorting SO-basis two-electron integrals.
	Sorting File: SO Ints (nn|nn) nbuckets = 1
	Constructing frozen core operators
	Starting first half-transformation.
	Sorting half-transformed integrals.
	First half integral transformation complete.
	Starting second half-transformation.
	Two-electron integral transformation complete.

	Reference Wfn Parameters:
	---------------------------
	Number of irreps        = 1
	Number of MOs           = 35
	Number of active MOs    = 35
	Number of active occ    = 12
	Number of active vir    = 23
	Number of frozen occ    = 0
	Number of frozen vir    = 0

	Number of atoms         = 7
	RHF one-electron energy     =    -356.628521683706
	RHF two-electron energy     =     128.634515250721
	RHF total electronic energy =    -227.994006432985
	RHF total energy            =    -152.624953048141
  ## Nuclear Repulsion Energy 1st Derivatives (Symmetry 0) ##
  Irrep: 1 Size: 7 x 3

                 1                   2                   3

    1     0.00000000000000    -0.00013774104363   -12.67078791104711
    2     0.00000000000000     7.32891883456315     5.04726340885114
    3     0.00000000000000    -7.32881658158878     5.04725468694175
    4     1.67474876347260     1.36712599495097     0.64405385535441
    5    -1.67474876347260     1.36712599495097     0.64405385535441
    6    -1.67474262181064    -1.36710825091634     0.64408105227270
    7     1.67474262181064    -1.36710825091634     0.64408105227270



  ## Core Hamiltonian Gradient (Symmetry 0) ##
  Irrep: 1 Size: 7 x 3

                 1                   2                   3

    1    -0.00000000000002     0.00011462940408    22.54045685981104
    2     0.00000000000002   -11.67914849371789    -8.36176691774252
    3     0.00000000000016    11.67909440262819    -8.36183243509793
    4    -4.56303626577304    -3.17833408575921    -1.45416306267398
    5     4.56303626577292    -3.17833408575924    -1.45416306267400
    6     4.56302531331546     3.17830381660229    -1.45426569081168
    7    -4.56302531331551     3.17830381660239    -1.45426569081175



  ## Overlap Gradient (Symmetry 0) ##
  Irrep: 1 Size: 7 x 3

                 1                   2                   3

    1    -0.00000000000000    -0.00000192915041    -0.28220573343720
    2     0.00000000000004     0.01823271816887     0.06268663106512
    3    -0.00000000000002    -0.01823151856837     0.06267827919770
    4     0.19606946869357     0.10083133334813     0.03920785670767
    5    -0.19606946869359     0.10083133334816     0.03920785670768
    6    -0.19606985207828    -0.10083096857318     0.03921255487951
    7     0.19606985207829    -0.10083096857320     0.03921255487952



  ## Coulomb Gradient (Symmetry 0) ##
  Irrep: 1 Size: 7 x 3

                 1                   2                   3

    1     0.00000000000002     0.00002284047597    -9.84504786417979
    2    -0.00000000000007     4.27820862481057     3.26642425038222
    3    -0.00000000000015    -4.27825799067238     3.26649900988880
    4     2.95827187081654     1.85519514504899     0.82799323095776
    5    -2.95827187081639     1.85519514504900     0.82799323095778
    6    -2.95826700762218    -1.85518188235603     0.82806907099658
    7     2.95826700762223    -1.85518188235612     0.82806907099665



  ## Exchange Gradient (Symmetry 0) ##
  Irrep: 1 Size: 7 x 3

                 1                   2                   3

    1    -0.00000000000000    -0.00000451451317     0.22967541925929
    2     0.00000000000000     0.07006135480350     0.00194751467072
    3     0.00000000000001    -0.07005555025139     0.00195039527430
    4    -0.27777070005635    -0.14841578092217    -0.05838983385298
    5     0.27777070005635    -0.14841578092217    -0.05838983385298
    6     0.27777097435460     0.14841513590269    -0.05839683074917
    7    -0.27777097435460     0.14841513590270    -0.05839683074918



  ## RHF Gradient (Symmetry 0) ##
  Irrep: 1 Size: 7 x 3

                 1                   2                   3

    1    -0.00000000000000    -0.00000671482715    -0.02790922959376
    2     0.00000000000000     0.01627303862820     0.01655488722668
    3    -0.00000000000000    -0.01626723845273     0.01654993620461
    4    -0.01171686284669    -0.00359739333328    -0.00129795350712
    5     0.01171686284668    -0.00359739333328    -0.00129795350712
    6     0.01171680615895     0.00359785065943    -0.00129984341207
    7    -0.01171680615895     0.00359785065942    -0.00129984341207



  ## CPHF Coefficients for R(0, 0) (Symmetry 0) ##
  Irrep: 1 Size: 23 x 12

                 1                   2                   3                   4                   5

    1    -0.00000000000000     0.00000000000000    -0.00000000000000    -0.00000000000000    -0.00000000000000
    2     0.00000000000000    -0.00000000000000     0.00000000000000    -0.00000000000011    -0.00000000000002
    3    -0.00075731919398     0.00003092769971    -0.00000002037198     0.02277763468488     0.00353132511509
    4     0.00000000000000    -0.00000000000000     0.00000000000000    -0.00000000000001    -0.00000000000000
    5     0.00000000000000    -0.00000000000000     0.00000000000000    -0.00000000000002    -0.00000000000000
    6    -0.00000001889166     0.00000019579680     0.00024714162816    -0.00000089601445    -0.00000047846456
    7    -0.00000000000000    -0.00000000000000     0.00000000000000    -0.00000000000000     0.00000000000000
    8    -0.00000000000000     0.00000000000000    -0.00000000000000     0.00000000000000    -0.00000000000000
    9    -0.00000000000000     0.00000000000000    -0.00000000000000    -0.00000000000000    -0.00000000000000
   10    -0.00337379127304     0.00049651129091    -0.00000041617221    -0.01604108533343    -0.01547731882295
   11    -0.00000000000000     0.00000000000000    -0.00000000000000    -0.00000000000000    -0.00000000000001
   12     0.00000000000000    -0.00000000000000     0.00000000000000     0.00000000000000     0.00000000000000
   13    -0.00000000000000    -0.00000000000000    -0.00000000000000    -0.00000000000000     0.00000000000000
   14    -0.00000002395326    -0.00000043102664    -0.00057575044758    -0.00000092772808    -0.00000050164458
   15    -0.00040561714396    -0.00023972643924     0.00000018093818     0.02059819506039     0.00440800409172
   16     0.00000000000000     0.00000000000000    -0.00000000000000    -0.00000000000001    -0.00000000000000
   17    -0.00000000000000    -0.00000000000000     0.00000000000000     0.00000000000000     0.00000000000000
   18    -0.00272010567324     0.00028109851413    -0.00000025706353    -0.00398263472246    -0.01517407120218
   19    -0.00000005718158    -0.00000076560038    -0.00100659908406    -0.00000012407567    -0.00000029867689
   20     0.00000000000000     0.00000000000000    -0.00000000000000     0.00000000000000     0.00000000000000
   21     0.00000000000000    -0.00000000000000    -0.00000000000000    -0.00000000000000    -0.00000000000000
   22     0.00000000000000     0.00000000000000    -0.00000000000000    -0.00000000000000    -0.00000000000000
   23     0.00000000000000     0.00000000000000    -0.00000000000000     0.00000000000000    -0.00000000000000

                 6                   7                   8                   9                  10

    1     0.00000000000001    -0.00764711517260     0.00000000000000     0.00000046761501     0.00000000000002
    2     0.00000000000000     0.00000607774900     0.00000000000014    -0.04171161374118     0.00000000000002
    3     0.00000019643282    -0.00000000000003    -0.02797429092850    -0.00000000000023     0.00000288632857
    4     0.00000000000000    -0.12959069498167     0.00000000000000     0.00009831603715     0.00000000000000
    5    -0.00000000000000    -0.00042737710935     0.00000000000002    -0.03101300010041    -0.00000000000000
    6    -0.01527801066176    -0.00000000000001     0.00000058891797    -0.00000000000002    -0.04364223143841
    7     0.00000000000000    -0.00000210152937    -0.00000000000000    -0.01842588718937     0.00000000000002
    8    -0.00000000000000    -0.04599360852825    -0.00000000000000    -0.00000138113049    -0.00000000000000
    9    -0.00000000000000     0.00000599506986     0.00000000000000    -0.00519522506329     0.00000000000000
   10     0.00000051453638     0.00000000000002     0.00581905683687     0.00000000000000    -0.00000070435253
   11    -0.00000000000000    -0.05979427411661     0.00000000000000    -0.00000247383372     0.00000000000000
   12    -0.00000000000000    -0.00000204477508    -0.00000000000000    -0.00382475658879     0.00000000000000
   13    -0.00000000000000     0.02209562063818     0.00000000000000     0.00000045184010    -0.00000000000001
   14    -0.00906399939247     0.00000000000000     0.00000051723658    -0.00000000000001    -0.02634087451055
   15     0.00000018034623     0.00000000000000    -0.01638518736600     0.00000000000000     0.00000180355931
   16    -0.00000000000000    -0.00000024092303     0.00000000000001    -0.00441985761805    -0.00000000000001
   17     0.00000000000000     0.01336937393781    -0.00000000000000     0.00000047485166     0.00000000000001
   18     0.00000080930091    -0.00000000000000    -0.00329252209853     0.00000000000000     0.00000051768158
   19     0.00518120720959    -0.00000000000001    -0.00000000297993     0.00000000000000     0.00642791241229
   20     0.00000000000000    -0.00000058670643    -0.00000000000000    -0.02048090406566     0.00000000000000
   21     0.00000000000000     0.00783877634991     0.00000000000000    -0.00000083323793    -0.00000000000000
   22     0.00000000000000     0.00000005292707     0.00000000000000    -0.01209353967954     0.00000000000000
   23    -0.00000000000000    -0.02250887745196    -0.00000000000000    -0.00000043910385    -0.00000000000000

                11                  12

    1    -0.04251835235649    -0.00000000000011
    2     0.00000638809359     0.00000000000028
    3     0.00000000000012    -0.05709326356930
    4    -0.11324133347177    -0.00000000000030
    5    -0.00037291908064     0.00000000000005
    6    -0.00000000000002    -0.00000053930833
    7    -0.00000124159663     0.00000000000000
    8    -0.06610877395480    -0.00000000000019
    9     0.00000686602720     0.00000000000000
   10    -0.00000000000003     0.02061837734588
   11    -0.07459980069053    -0.00000000000020
   12    -0.00000242716953    -0.00000000000000
   13     0.02740425097751     0.00000000000008
   14     0.00000000000000    -0.00000011763851
   15     0.00000000000008    -0.02994777644044
   16     0.00000015507529     0.00000000000001
   17     0.00992738564789     0.00000000000003
   18    -0.00000000000002     0.00827919580338
   19     0.00000000000000     0.00000047078441
   20     0.00000128689669    -0.00000000000000
   21    -0.00870397440154    -0.00000000000002
   22    -0.00000005208621     0.00000000000000
   23     0.00612906721729     0.00000000000002



  ## CPHF Coefficients for R(0, 1) (Symmetry 0) ##
  Irrep: 1 Size: 23 x 12

                 1                   2                   3                   4                   5

    1     0.00000003528691    -0.00000016573286    -0.00021514365629    -0.00000062055937     0.00000030148132
    2    -0.00162448568446     0.00009742009822    -0.00000009890146     0.01059717083019    -0.00680538150395
    3    -0.00000000000001     0.00000000000000     0.00000000000000     0.00000000000008    -0.00000000000004
    4     0.00000697527559     0.00000128012387     0.00016331563974    -0.00009651117054     0.00000392013047
    5    -0.00213990140716    -0.00034912817899     0.00000080966752     0.02849817118099    -0.00187429724469
    6    -0.00000000000000     0.00000000000000    -0.00000000000000     0.00000000000000    -0.00000000000000
    7    -0.00090733497627    -0.00038745566209     0.00000035236230     0.03811024173704    -0.00277634765774
    8    -0.00000002378030    -0.00000009574785    -0.00012261870820    -0.00000103470714    -0.00000091266444
    9     0.00119948728305    -0.00103776837960     0.00000067696435     0.06562269347456     0.01825908207140
   10    -0.00000000000000     0.00000000000000    -0.00000000000000    -0.00000000000002    -0.00000000000001
   11     0.00000025049656     0.00000073603044     0.00119651417177     0.00001022970699     0.00000295646024
   12    -0.00168363006810    -0.00003573701366     0.00000004460998    -0.00343573910620    -0.01082164542147
   13    -0.00000003815296    -0.00000058503979    -0.00076482813265    -0.00000005708312    -0.00000003406113
   14     0.00000000000000    -0.00000000000000    -0.00000000000000     0.00000000000000     0.00000000000000
   15    -0.00000000000000    -0.00000000000000    -0.00000000000000    -0.00000000000000     0.00000000000000
   16    -0.00114128693254    -0.00001536105882     0.00000000236158    -0.01053032425551    -0.00438702710432
   17    -0.00000000187914    -0.00000044810102    -0.00058595099446     0.00000022780755     0.00000028402973
   18     0.00000000000000     0.00000000000000    -0.00000000000000     0.00000000000000    -0.00000000000000
   19     0.00000000000000    -0.00000000000000     0.00000000000000     0.00000000000000     0.00000000000000
   20    -0.00090664692492     0.00017518397244    -0.00000017961955    -0.01901872454712    -0.01125944293717
   21    -0.00000002311397     0.00000007429726     0.00008082234162    -0.00000034087100    -0.00000003861413
   22     0.00127311957054    -0.00074047871574     0.00000052427598     0.01398595590778     0.00741286175904
   23     0.00000008842459     0.00000132466666     0.00177895837316    -0.00000075761536    -0.00000056036802

                 6                   7                   8                   9                  10

    1     0.00657307906603     0.00000000000001     0.00000223991322     0.00000000000001     0.03655292206239
    2     0.00000497233913     0.00000000000000    -0.04038173313359     0.00000000000002     0.00000863242884
    3    -0.00000000000002     0.00000016814597    -0.00000000000026    -0.00427026254368    -0.00000000000003
    4    -0.08708174763831     0.00000000000000     0.00022082613614    -0.00000000000003    -0.14961231522536
    5    -0.00028637544061    -0.00000000000000    -0.06637899550039     0.00000000000001    -0.00048993870385
    6    -0.00000000000000    -0.02216109118430    -0.00000000000001    -0.00000095915521     0.00000000000001
    7    -0.00000211796029     0.00000000000001    -0.06773547421483     0.00000000000000    -0.00000233805837
    8    -0.02462874850953    -0.00000000000000     0.00000045794613    -0.00000000000001    -0.04731205306710
    9     0.00000105274559     0.00000000000000    -0.06418228576070     0.00000000000000     0.00000171056040
   10     0.00000000000001    -0.00000068096795     0.00000000000002    -0.00738443096767     0.00000000000000
   11    -0.01861632950707     0.00000000000000    -0.00000935453754    -0.00000000000000    -0.00215970611344
   12    -0.00000097300730    -0.00000000000000    -0.01605970610945     0.00000000000000    -0.00000234875735
   13     0.00740465131964    -0.00000000000000    -0.00000010176049     0.00000000000000     0.01194019851464
   14     0.00000000000000    -0.01270100764090    -0.00000000000000    -0.00000054899926    -0.00000000000000
   15    -0.00000000000000     0.00000028668689     0.00000000000000    -0.00435913659478     0.00000000000000
   16     0.00000034349143    -0.00000000000000     0.00474848707036     0.00000000000000     0.00000009920045
   17     0.00953445271624     0.00000000000000     0.00000000048836     0.00000000000000     0.01150688050078
   18     0.00000000000000    -0.00000074343755     0.00000000000000    -0.02458972313254     0.00000000000001
   19    -0.00000000000001     0.00654798301953    -0.00000000000000    -0.00000012744709    -0.00000000000001
   20    -0.00000072135668     0.00000000000000    -0.00363512438306    -0.00000000000000    -0.00000332381789
   21     0.01996339926646     0.00000000000000    -0.00000017442341     0.00000000000001     0.03876960102836
   22     0.00000058840461     0.00000000000000    -0.01875077390094     0.00000000000000     0.00000158020050
   23    -0.03917194144723     0.00000000000000    -0.00000019546634    -0.00000000000001    -0.05459014270673

                11                  12

    1     0.00000000000002     0.00000117342559
    2    -0.00000000000012     0.04579744393575
    3     0.00000083753738     0.00000000000023
    4     0.00000000000001     0.00000538447586
    5    -0.00000000000001    -0.00136316471333
    6    -0.04760102144248    -0.00000000000013
    7     0.00000000000015    -0.04900729656347
    8    -0.00000000000000    -0.00000037927462
    9     0.00000000000021    -0.07639227476463
   10    -0.00000069669173     0.00000000000002
   11    -0.00000000000000    -0.00001135973312
   12    -0.00000000000001     0.00568527501721
   13    -0.00000000000001     0.00000040899779
   14    -0.03278877505926    -0.00000000000010
   15     0.00000073471617     0.00000000000000
   16    -0.00000000000008     0.02667759894485
   17     0.00000000000001    -0.00000018454710
   18     0.00000054193648    -0.00000000000000
   19    -0.00189391779071    -0.00000000000001
   20    -0.00000000000016     0.05646461697064
   21    -0.00000000000000     0.00000355664783
   22    -0.00000000000001     0.00453315639584
   23    -0.00000000000000    -0.00000079397402



  ## CPHF Coefficients for R(0, 2) (Symmetry 0) ##
  Irrep: 1 Size: 23 x 12

                 1                   2                   3                   4                   5

    1    -0.00048729873822    -0.00022993933716     0.00000017149331    -0.00642349381135     0.01320507046224
    2     0.00000009408821     0.00000019639426     0.00006474571920     0.00000242454802    -0.00000503303897
    3    -0.00000000000000    -0.00000000000000     0.00000000000000    -0.00000000000002     0.00000000000003
    4    -0.00109758183397    -0.00291514365972     0.00000225271156    -0.05272007181776     0.09398724610462
    5    -0.00000362702466    -0.00000962307855     0.00000230297691    -0.00017426403212     0.00030908361269
    6    -0.00000000000000    -0.00000000000000     0.00000000000000    -0.00000000000000     0.00000000000001
    7    -0.00000004563451     0.00000033367230     0.00054096698743    -0.00000083419868     0.00000145186631
    8     0.00131857023182    -0.00118850590675     0.00000094182557     0.03034030675154     0.03966972325438
    9     0.00000006669159     0.00000063820949     0.00064991799572     0.00000113458010    -0.00000437439800
   10     0.00000000000000     0.00000000000000     0.00000000000000    -0.00000000000000    -0.00000000000002
   11     0.00001772785734    -0.00166119452164     0.00000139095467     0.00167399818999     0.05223478208128
   12     0.00000003274852     0.00000067241381     0.00096503424895     0.00000103278785     0.00000147242151
   13     0.00020288306860     0.00053319156555    -0.00000039467505    -0.02852241598022    -0.01642006655240
   14     0.00000000000000    -0.00000000000000     0.00000000000000     0.00000000000000    -0.00000000000000
   15    -0.00000000000000     0.00000000000000    -0.00000000000000    -0.00000000000000     0.00000000000000
   16     0.00000000257558    -0.00000013547948    -0.00017661934555    -0.00000085568415    -0.00000041338401
   17     0.00104689710546    -0.00034642403364     0.00000027927248     0.01560657611671    -0.00344759690880
   18    -0.00000000000000     0.00000000000000    -0.00000000000000    -0.00000000000000    -0.00000000000000
   19    -0.00000000000000     0.00000000000000    -0.00000000000000    -0.00000000000001    -0.00000000000000
   20    -0.00000000169347     0.00000089177731     0.00112124931149    -0.00000286204768    -0.00000137278865
   21     0.00042211394923    -0.00059963807007     0.00000053400914     0.04227681390176     0.00716959842142
   22    -0.00000000110777     0.00000081021193     0.00106306949902     0.00000100490383    -0.00000033501807
   23     0.00442753916564     0.00041984341374    -0.00000022178655    -0.02506326452186     0.02885848855400

                 6                   7                   8                   9                  10

    1     0.00000008785903    -0.00000000000000     0.01461195993132     0.00000000000000    -0.00000066363538
    2    -0.01289518129247    -0.00000000000010    -0.00000972464405    -0.00000000000001    -0.03390775529120
    3    -0.00000000000008     0.02022001583237     0.00000000000005     0.00000128155551    -0.00000000000016
    4     0.00003409173319    -0.00000000000001     0.19114057626444    -0.00000000000000    -0.00007747286196
    5    -0.01129894616246    -0.00000000000002     0.00063008807831     0.00000000000000     0.02148794601065
    6     0.00000000000000    -0.00000089426547     0.00000000000001    -0.00821352902935     0.00000000000001
    7     0.02180065180245    -0.00000000000000     0.00000221091295     0.00000000000002     0.07475576827399
    8    -0.00000162475146     0.00000000000000     0.00784837920382     0.00000000000000     0.00000002325959
    9     0.04656248157979    -0.00000000000001    -0.00000762136629     0.00000000000003     0.14102058291871
   10    -0.00000000000001    -0.01698265365579    -0.00000000000002    -0.00000105621374    -0.00000000000004
   11     0.00000582195869    -0.00000000000001     0.06668028264510    -0.00000000000000     0.00002126593354
   12    -0.00074621453997     0.00000000000000     0.00000015909144    -0.00000000000000    -0.00126389483890
   13     0.00000020509404    -0.00000000000000     0.01183521183144    -0.00000000000000    -0.00000180133729
   14     0.00000000000001    -0.00000085876050    -0.00000000000001    -0.00300316212973     0.00000000000001
   15    -0.00000000000000     0.01318676997897     0.00000000000000     0.00000102833601    -0.00000000000000
   16    -0.01952400722846    -0.00000000000001     0.00000081850090    -0.00000000000001    -0.03260679415611
   17    -0.00000024413197     0.00000000000000    -0.02386573010643     0.00000000000000     0.00000011904158
   18     0.00000000000000    -0.03028646389337    -0.00000000000000    -0.00000035035522    -0.00000000000000
   19     0.00000000000000    -0.00000032977565     0.00000000000002     0.00860361922570     0.00000000000000
   20    -0.04019326251397     0.00000000000000     0.00000198016743    -0.00000000000002    -0.06651131873486
   21    -0.00000242828659     0.00000000000000    -0.04585832621809     0.00000000000000    -0.00000249067240
   22    -0.00251667856160    -0.00000000000000    -0.00000107493028     0.00000000000000     0.01921910629867
   23    -0.00000135328230    -0.00000000000000     0.04496720880664    -0.00000000000000    -0.00000172817238

                11                  12

    1    -0.00000000000003     0.00376661262194
    2    -0.00000000000043    -0.00000131623565
    3     0.08835213659385     0.00000000000026
    4    -0.00000000000012     0.03555464883738
    5    -0.00000000000008     0.00012086350987
    6    -0.00000156759465    -0.00000000000000
    7     0.00000000000000     0.00000551680255
    8     0.00000000000015    -0.05204292571798
    9    -0.00000000000001     0.00000569141625
   10    -0.02888273139847    -0.00000000000008
   11    -0.00000000000001     0.00037666986536
   12     0.00000000000000    -0.00000086269793
   13    -0.00000000000012     0.04149376711839
   14    -0.00000165574786    -0.00000000000000
   15     0.05316087317749     0.00000000000015
   16    -0.00000000000003    -0.00000059979456
   17     0.00000000000000    -0.00068188694887
   18     0.00831220935714     0.00000000000002
   19    -0.00000054357486     0.00000000000001
   20     0.00000000000001    -0.00000069660835
   21     0.00000000000006    -0.02173162187680
   22    -0.00000000000000     0.00000054414237
   23    -0.00000000000004     0.01471419043576



  ## CPHF Coefficients for R(1, 0) (Symmetry 0) ##
  Irrep: 1 Size: 23 x 12

                 1                   2                   3                   4                   5

    1    -0.00000000000000    -0.00000000000000     0.00000000000000    -0.00000000000001     0.00000000000001
    2    -0.00000000000000    -0.00000000000000     0.00000000000000     0.00000000000004     0.00000000000006
    3     0.00028115758723     0.00099916396244    -0.00122194783309    -0.00772718242881    -0.01170244696504
    4     0.00000000000000     0.00000000000000    -0.00000000000000     0.00000000000000     0.00000000000000
    5    -0.00000000000000    -0.00000000000000     0.00000000000000     0.00000000000001     0.00000000000001
    6    -0.00011494504457    -0.00018243545859     0.00087684734917     0.01514662936179    -0.00804294568957
    7     0.00000000000000     0.00000000000000    -0.00000000000000    -0.00000000000000    -0.00000000000000
    8    -0.00000000000000    -0.00000000000000     0.00000000000000    -0.00000000000000     0.00000000000000
    9     0.00000000000000    -0.00000000000000     0.00000000000000    -0.00000000000000     0.00000000000001
   10     0.00188394634810    -0.00132918842018     0.00611085934100     0.00006682511181     0.04461492358869
   11     0.00000000000000    -0.00000000000000     0.00000000000000    -0.00000000000000     0.00000000000002
   12    -0.00000000000000    -0.00000000000000     0.00000000000000    -0.00000000000000    -0.00000000000000
   13     0.00000000000000    -0.00000000000000     0.00000000000000     0.00000000000000     0.00000000000000
   14     0.00039491484456     0.00051087388125    -0.00036842468745     0.02057700352389    -0.00810814276267
   15     0.00002995440414    -0.00122872774557    -0.00026728019092    -0.01304115833062     0.00249229728617
   16     0.00000000000000     0.00000000000000    -0.00000000000000     0.00000000000001    -0.00000000000000
   17    -0.00000000000000    -0.00000000000000     0.00000000000000    -0.00000000000001     0.00000000000001
   18     0.00137824569774     0.00046922044150     0.00030851926169     0.00462954554160     0.00058153028588
   19     0.00088224106724    -0.00205716141327     0.00203825753151    -0.00786535206610     0.03719626216059
   20    -0.00000000000000    -0.00000000000000     0.00000000000000    -0.00000000000000     0.00000000000000
   21     0.00000000000000    -0.00000000000000     0.00000000000000     0.00000000000000     0.00000000000001
   22    -0.00000000000000    -0.00000000000000     0.00000000000000     0.00000000000000    -0.00000000000000
   23    -0.00000000000000    -0.00000000000000     0.00000000000000    -0.00000000000000     0.00000000000000

                 6                   7                   8                   9                  10

    1    -0.00000000000000     0.05237769456793     0.00000000000003     0.08793999485419    -0.00000000000003
    2     0.00000000000000    -0.03099359554781    -0.00000000000009    -0.02284590801309     0.00000000000015
    3     0.00046767696096    -0.00000000000008     0.02060788210524    -0.00000000000004    -0.03101176980114
    4     0.00000000000000     0.06068432088184     0.00000000000000    -0.00425123109963     0.00000000000000
    5    -0.00000000000001     0.05530219874896    -0.00000000000003     0.07300181487670     0.00000000000002
    6    -0.01536674662626     0.00000000000003    -0.07490099118981     0.00000000000003     0.03823067546190
    7     0.00000000000001     0.05243320842162     0.00000000000003     0.01257457704626    -0.00000000000002
    8    -0.00000000000001    -0.00763511036060    -0.00000000000001    -0.06722004284121     0.00000000000002
    9    -0.00000000000002     0.01483483858519    -0.00000000000002    -0.02783503158851     0.00000000000001
   10    -0.07608734139945    -0.00000000000001    -0.04794998599086     0.00000000000001     0.01548242316994
   11    -0.00000000000003     0.02359986558868    -0.00000000000002     0.00923239619898     0.00000000000000
   12     0.00000000000000     0.02012091644513     0.00000000000000    -0.03826851606163     0.00000000000001
   13    -0.00000000000001    -0.02969369858342    -0.00000000000001    -0.03184324579024     0.00000000000001
   14    -0.00225512227293     0.00000000000000    -0.04015797068890     0.00000000000000     0.01807338417885
   15    -0.00580599441830     0.00000000000001     0.00376857823311     0.00000000000002    -0.00161400122260
   16     0.00000000000000    -0.00506921037316    -0.00000000000001     0.01132017053924     0.00000000000000
   17    -0.00000000000001    -0.02188450715161     0.00000000000001    -0.02320311304902     0.00000000000000
   18     0.00291903136781     0.00000000000000     0.00987031338349    -0.00000000000001    -0.01713523824217
   19    -0.04218710950314     0.00000000000000    -0.02512074135412     0.00000000000001     0.02245356535032
   20    -0.00000000000000    -0.01116896985500    -0.00000000000000    -0.01100610702876     0.00000000000000
   21    -0.00000000000001     0.01109660492486    -0.00000000000001     0.01674673640775     0.00000000000000
   22     0.00000000000000     0.03689036544442     0.00000000000000     0.03624372556990    -0.00000000000001
   23    -0.00000000000000     0.01469352978559    -0.00000000000000     0.01992842151490    -0.00000000000000

                11                  12

    1    -0.02427380100623    -0.00000000000009
    2     0.08039571846484     0.00000000000009
    3     0.00000000000038     0.02551365106304
    4     0.06165624809610     0.00000000000016
    5     0.04309588729930     0.00000000000011
    6    -0.00000000000011     0.04141976728907
    7     0.04845071362212     0.00000000000013
    8     0.06725274706201     0.00000000000019
    9     0.07253205201032     0.00000000000021
   10    -0.00000000000006     0.01045056075561
   11     0.04378390831787     0.00000000000013
   12     0.03467156230240     0.00000000000010
   13     0.00900612279296     0.00000000000003
   14    -0.00000000000004     0.01724622176702
   15    -0.00000000000006     0.01784404753962
   16    -0.00635235337391    -0.00000000000002
   17     0.01221559040635     0.00000000000003
   18     0.00000000000002    -0.00859660969322
   19    -0.00000000000003     0.00913002009407
   20     0.01727402945862     0.00000000000005
   21    -0.01285766306369    -0.00000000000003
   22    -0.01678040467452    -0.00000000000005
   23    -0.00422395139409    -0.00000000000001



  ## CPHF Coefficients for R(1, 1) (Symmetry 0) ##
  Irrep: 1 Size: 23 x 12

                 1                   2                   3                   4                   5

    1     0.00041986996804     0.00091498451302    -0.00022427651485    -0.00367034141645     0.00198019871373
    2     0.00104478764931    -0.00096934697595     0.00056827571316    -0.00616966794506     0.01587441497794
    3     0.00000000000001    -0.00000000000000     0.00000000000000    -0.00000000000005     0.00000000000009
    4     0.00030346785844     0.00047365998913    -0.00030759914459    -0.01172653740172     0.03516922303423
    5     0.00103237435880     0.00096923951454    -0.00097085676634    -0.01411356091661     0.00071101834383
    6     0.00000000000000     0.00000000000000    -0.00000000000000    -0.00000000000000     0.00000000000000
    7     0.00017456565337     0.00037323540828    -0.00029759508777    -0.01588128775578    -0.01368888086556
    8     0.00024369128262    -0.00135029748088     0.00149628074977    -0.03434008868515     0.06241480364192
    9    -0.00058322295725     0.00035812295673    -0.00094415919173    -0.03561444620624    -0.00173141064365
   10    -0.00000000000000    -0.00000000000000     0.00000000000000     0.00000000000001     0.00000000000001
   11    -0.00024223501462     0.00150834176414    -0.00134515845380    -0.01592148106059    -0.02742732181276
   12     0.00081524911732    -0.00070701298008    -0.00060088384666    -0.00142353770462     0.01062348564327
   13     0.00056212788515     0.00008177768189     0.00013567397752     0.02033045436236    -0.00973028892068
   14     0.00000000000000     0.00000000000000    -0.00000000000000     0.00000000000000    -0.00000000000002
   15     0.00000000000000     0.00000000000000     0.00000000000000    -0.00000000000000     0.00000000000001
   16     0.00031339099917    -0.00062127266953     0.00282689744613    -0.00007618893614     0.01653010745136
   17     0.00046644290855     0.00071497411553    -0.00049693065379     0.00615562952835    -0.01662955034693
   18    -0.00000000000000     0.00000000000000    -0.00000000000000     0.00000000000000     0.00000000000000
   19     0.00000000000000     0.00000000000000    -0.00000000000000     0.00000000000001    -0.00000000000000
   20     0.00041148416273     0.00054012881578     0.00227212345043     0.00988791441218     0.00692857517958
   21    -0.00016807908748    -0.00104174002913     0.00061027854775    -0.02328988467799     0.01627827212328
   22    -0.00044019373249     0.00016634554309    -0.00273475159288    -0.00419601389195    -0.01300544046044
   23    -0.00121732253728     0.00106320334258    -0.00106341831132     0.01261343001279    -0.01177213425697

                 6                   7                   8                   9                  10

    1     0.00382288309907     0.00000000000001     0.02204563840758     0.00000000000001    -0.02321882230809
    2    -0.03003508153813     0.00000000000009    -0.00110584829257    -0.00000000000028     0.02737476338854
    3    -0.00000000000014    -0.01779018843396     0.00000000000004     0.06051333225150     0.00000000000013
    4     0.04917643955526     0.00000000000000     0.07768247772131     0.00000000000000     0.07275953705044
    5     0.00250808045887     0.00000000000001     0.02895935408960    -0.00000000000007    -0.00760505382475
    6     0.00000000000001    -0.02409374763731     0.00000000000003    -0.07259533902228     0.00000000000001
    7     0.04013061901499     0.00000000000000     0.04698747709777     0.00000000000001     0.00094952392138
    8     0.00082898386685    -0.00000000000000     0.07522428926666     0.00000000000000     0.02837780856861
    9    -0.00556348505631    -0.00000000000001     0.02959586948629    -0.00000000000001     0.01698201419796
   10    -0.00000000000000    -0.01603219913856    -0.00000000000001    -0.03753363433591     0.00000000000000
   11     0.00218664248124    -0.00000000000001     0.00791678192156    -0.00000000000001     0.00746023793977
   12     0.02799271231142     0.00000000000000     0.01699085305110     0.00000000000000     0.00615988974534
   13    -0.02347686887416    -0.00000000000000    -0.05897733680442    -0.00000000000001     0.00813743846065
   14     0.00000000000001    -0.00455040494923    -0.00000000000001    -0.05080991654448     0.00000000000002
   15    -0.00000000000000    -0.02398557261536     0.00000000000001     0.01402260834135    -0.00000000000001
   16    -0.02480575729000     0.00000000000001    -0.00082750375535    -0.00000000000002    -0.01306862872140
   17    -0.00470559567536    -0.00000000000000    -0.02423591120128     0.00000000000001    -0.00281912686154
   18    -0.00000000000000     0.01567274530584     0.00000000000000     0.01447050345745    -0.00000000000000
   19     0.00000000000001    -0.02347668509044    -0.00000000000001    -0.04192524802879     0.00000000000002
   20    -0.00907259824920    -0.00000000000000    -0.00523927474299    -0.00000000000000     0.01056431423926
   21    -0.00522633881888    -0.00000000000001     0.04315507841371    -0.00000000000003    -0.02516352948197
   22     0.02966520112603     0.00000000000000     0.01934362499411     0.00000000000000    -0.00392789597157
   23     0.02241113873748    -0.00000000000000    -0.00884077700899     0.00000000000001     0.02607655641691

                11                  12

    1     0.00000000000010    -0.04116322739792
    2     0.00000000000009    -0.00669051216917
    3    -0.01714361913310    -0.00000000000012
    4     0.00000000000030    -0.10789109771863
    5     0.00000000000005    -0.00693424448763
    6     0.04651690328748     0.00000000000011
    7    -0.00000000000009     0.02439005743031
    8     0.00000000000019    -0.06951724556578
    9    -0.00000000000008     0.03355121903040
   10     0.04074599487979     0.00000000000008
   11    -0.00000000000018     0.06914669849360
   12     0.00000000000004    -0.01666494792146
   13    -0.00000000000003     0.01497560189518
   14     0.03439665054592     0.00000000000012
   15    -0.01573300263884    -0.00000000000006
   16     0.00000000000008    -0.02581704324597
   17    -0.00000000000012     0.03884087369589
   18    -0.00791380567940    -0.00000000000002
   19     0.01923068932399     0.00000000000005
   20     0.00000000000006    -0.02357639781368
   21     0.00000000000005    -0.01421620328531
   22     0.00000000000001    -0.00389008499770
   23     0.00000000000006    -0.02194278280622



  ## CPHF Coefficients for R(1, 2) (Symmetry 0) ##
  Irrep: 1 Size: 23 x 12

                 1                   2                   3                   4                   5

    1    -0.00013366103564     0.00050976429762    -0.00047711090552     0.00115557935382    -0.01317735528096
    2    -0.00001972885773     0.00069235781972    -0.00074884026756     0.03058949818331    -0.03813554730721
    3    -0.00000000000000     0.00000000000000    -0.00000000000001     0.00000000000017    -0.00000000000024
    4     0.00028112902571     0.00278800053023    -0.00542785814381     0.03255649864565    -0.05970485323667
    5     0.00027586660111     0.00099772372341    -0.00089791387269     0.01459887597751    -0.03823302938599
    6     0.00000000000000     0.00000000000000    -0.00000000000000     0.00000000000000    -0.00000000000002
    7     0.00169151362122     0.00027126111865    -0.00039971788809    -0.01818080354413    -0.03385875891998
    8    -0.00081086660546     0.00046895059566    -0.00022281662195    -0.01684748378086    -0.01936086896167
    9    -0.00048530020049    -0.00055787165785     0.00075358168819    -0.03064748784397    -0.04903868959050
   10    -0.00000000000000     0.00000000000000    -0.00000000000000     0.00000000000001     0.00000000000002
   11     0.00002364316036    -0.00013000455432     0.00310653926181     0.00057961155783    -0.03645264908394
   12    -0.00005619152795     0.00110920138202    -0.00088765342526    -0.02854309635975    -0.00386683950130
   13    -0.00055198883220    -0.00008722402700     0.00003539926013     0.01040499962185     0.01115751975964
   14    -0.00000000000000     0.00000000000000     0.00000000000000    -0.00000000000001    -0.00000000000000
   15     0.00000000000000    -0.00000000000000     0.00000000000000     0.00000000000000     0.00000000000000
   16    -0.00013275322512    -0.00070890803870     0.00035264058362     0.01594834358418     0.00994504664196
   17    -0.00048097518719     0.00045646096669     0.00022480976144    -0.00641056133179     0.00384392029614
   18    -0.00000000000000    -0.00000000000000     0.00000000000000    -0.00000000000000     0.00000000000000
   19    -0.00000000000000    -0.00000000000000     0.00000000000000     0.00000000000001     0.00000000000000
   20    -0.00151802418936    -0.00007525336808    -0.00074572458586     0.01763278116888    -0.00379377837558
   21     0.00000907555120    -0.00004921904300    -0.00027981419194    -0.02067702477786    -0.00302843722362
   22    -0.00099278420060     0.00044541197773    -0.00045913189089    -0.00876247487578    -0.01695395365619
   23    -0.00199388072474    -0.00002295229615    -0.00228510431966     0.01463621534614    -0.01192146987802

                 6                   7                   8                   9                  10

    1     0.00124598331124    -0.00000000000000    -0.00384387152736     0.00000000000000    -0.02249525121456
    2     0.03153368390764    -0.00000000000000    -0.04138121804655    -0.00000000000008     0.00450361872698
    3     0.00000000000019    -0.00006604817459    -0.00000000000024     0.01828906599468     0.00000000000000
    4     0.05370145314293     0.00000000000000    -0.08234901358656     0.00000000000001     0.03369833493230
    5     0.02839974082571     0.00000000000000    -0.01612870683820    -0.00000000000003    -0.02883895238628
    6     0.00000000000001     0.00513977351878    -0.00000000000000    -0.02150210955749    -0.00000000000000
    7     0.00106256805997     0.00000000000000     0.01874500521678    -0.00000000000000    -0.03429831674904
    8    -0.00644558417137     0.00000000000000    -0.00465548978509    -0.00000000000000    -0.00338320627435
    9    -0.01586766616155     0.00000000000000     0.00613934755317    -0.00000000000003    -0.08783350084350
   10     0.00000000000000    -0.00458280805873     0.00000000000001    -0.01429428300154     0.00000000000005
   11    -0.00376254384593     0.00000000000000    -0.01767397796812    -0.00000000000002    -0.07668836559824
   12    -0.01287932985282    -0.00000000000000     0.02834492810572    -0.00000000000000     0.00254516893899
   13    -0.00202322725093     0.00000000000000    -0.01164020163290     0.00000000000000     0.01060053961440
   14     0.00000000000000     0.00968841987435     0.00000000000001    -0.00509676955358     0.00000000000000
   15    -0.00000000000000    -0.00429463449307    -0.00000000000000     0.00667697669177    -0.00000000000001
   16     0.00343805908958     0.00000000000000    -0.01678304524787    -0.00000000000000     0.00544334844359
   17     0.00197726431403    -0.00000000000000     0.01398077688969     0.00000000000000     0.00352487596767
   18    -0.00000000000000     0.02103182090618    -0.00000000000000     0.02780467889889    -0.00000000000001
   19     0.00000000000000    -0.00985271781354    -0.00000000000001    -0.01244015162629     0.00000000000001
   20     0.02038596988628    -0.00000000000000    -0.02027760883607     0.00000000000001     0.03995190596124
   21    -0.00788911848319    -0.00000000000000     0.02682476175846    -0.00000000000001    -0.02379745413302
   22     0.00673290193473    -0.00000000000000     0.00903070376765    -0.00000000000000    -0.01020030806781
   23     0.02462519615636    -0.00000000000000    -0.02555742271025     0.00000000000001     0.04455674565826

                11                  12

    1    -0.00000000000004     0.00533743011534
    2     0.00000000000050    -0.06068000793433
    3    -0.07117640363952    -0.00000000000055
    4     0.00000000000013    -0.03881928209350
    5     0.00000000000019    -0.03859336168661
    6     0.08432889918523     0.00000000000025
    7    -0.00000000000020     0.06659478684125
    8    -0.00000000000009     0.03431961131083
    9    -0.00000000000021     0.07802167142195
   10     0.01955858023479     0.00000000000004
   11     0.00000000000002    -0.00621466433315
   12    -0.00000000000018     0.06591158072340
   13    -0.00000000000002     0.01146517453765
   14     0.02970435548981     0.00000000000008
   15    -0.03098547345598    -0.00000000000009
   16     0.00000000000009    -0.02468799065221
   17     0.00000000000002    -0.01010861899351
   18     0.00191480184514     0.00000000000001
   19    -0.01178234023711    -0.00000000000004
   20     0.00000000000009    -0.03329622362565
   21    -0.00000000000004     0.01399081332230
   22    -0.00000000000002     0.00634950341113
   23     0.00000000000002    -0.00803670382325



  ## CPHF Coefficients for R(2, 0) (Symmetry 0) ##
  Irrep: 1 Size: 23 x 12

                 1                   2                   3                   4                   5

    1     0.00000000000000     0.00000000000000    -0.00000000000000     0.00000000000001    -0.00000000000000
    2    -0.00000000000000    -0.00000000000000    -0.00000000000001     0.00000000000004     0.00000000000005
    3     0.00028117013489     0.00100106215678     0.00122037985898    -0.00772642696812    -0.01170217228243
    4    -0.00000000000000    -0.00000000000000     0.00000000000000     0.00000000000000     0.00000000000000
    5    -0.00000000000000    -0.00000000000000    -0.00000000000000     0.00000000000000     0.00000000000001
    6     0.00011497616981     0.00018378208111     0.00087650916403    -0.01514591072312     0.00804265587107
    7     0.00000000000000     0.00000000000000    -0.00000000000000     0.00000000000000    -0.00000000000000
    8     0.00000000000000     0.00000000000000    -0.00000000000000    -0.00000000000000    -0.00000000000000
    9     0.00000000000000    -0.00000000000000    -0.00000000000000    -0.00000000000000     0.00000000000001
   10     0.00188380888803    -0.00133862446206    -0.00610877271356     0.00006680602936     0.04461779403134
   11     0.00000000000000    -0.00000000000000    -0.00000000000000     0.00000000000000     0.00000000000001
   12    -0.00000000000000    -0.00000000000000     0.00000000000000    -0.00000000000000    -0.00000000000000
   13     0.00000000000000     0.00000000000000    -0.00000000000000    -0.00000000000000    -0.00000000000000
   14    -0.00039488026418    -0.00051145850612    -0.00036766998766    -0.02057608347964     0.00810853359454
   15     0.00002997159394    -0.00122832950941     0.00026918086303    -0.01304048930619     0.00249276263841
   16    -0.00000000000000     0.00000000000000    -0.00000000000000     0.00000000000000     0.00000000000000
   17     0.00000000000000     0.00000000000000     0.00000000000000     0.00000000000001    -0.00000000000001
   18     0.00137815047829     0.00046872656282    -0.00030923289617     0.00462946037770     0.00058155396243
   19    -0.00088217959846     0.00206030050089     0.00203499289135     0.00786523992640    -0.03719740210000
   20    -0.00000000000000    -0.00000000000000     0.00000000000000    -0.00000000000000    -0.00000000000000
   21    -0.00000000000000     0.00000000000000     0.00000000000000     0.00000000000000    -0.00000000000001
   22     0.00000000000000     0.00000000000000    -0.00000000000000     0.00000000000000     0.00000000000000
[...]
   21     0.04988859251397    -0.00000000000000     0.00000244096864     0.00000000000001     0.03798445348459
   22    -0.00000260835273    -0.00000000000000     0.05762059821187     0.00000000000000    -0.00000172449019
   23     0.02303196895912    -0.00000000000000     0.00000123842102     0.00000000000001     0.02902461653608

                11                  12

    1     0.00000000000009     0.00000426677905
    2    -0.00000000000112     0.41414997967496
    3    -0.00000634306549     0.00000000000182
    4     0.00000000000001     0.00074918420191
    5     0.00000000000056    -0.21145785679281
    6    -0.12452027885288    -0.00000000000031
    7     0.00000000000071    -0.25095113529781
    8     0.00000000000000     0.00000275428093
    9     0.00000000000045    -0.16081447466689
   10    -0.00000472584971     0.00000000000005
   11     0.00000000000000    -0.00003227081424
   12    -0.00000000000009     0.03280873006819
   13     0.00000000000003     0.00000189038913
   14     0.09143510011664     0.00000000000025
   15     0.00000280434505    -0.00000000000005
   16     0.00000000000012    -0.03702483102598
   17    -0.00000000000001    -0.00000259733809
   18     0.00000197377142    -0.00000000000000
   19     0.15687783597247     0.00000000000042
   20    -0.00000000000046     0.16939048020686
   21     0.00000000000006     0.00000908737089
   22    -0.00000000000003     0.00611031087843
   23     0.00000000000000     0.00000366064447



  ## CPHF Coefficients for B(1) (Symmetry 0) ##
  Irrep: 1 Size: 23 x 12

                 1                   2                   3                   4                   5

    1     0.00000000000000     0.00000000000000     0.00000000000000     0.00000000000001    -0.00000000000000
    2     0.00000000000003     0.00000000000007     0.00000000000000     0.00000000000021    -0.00000000000008
    3    -0.00677167195433    -0.01493057027408     0.00001114564203    -0.04337394349602     0.01746611173497
    4     0.00000000000000     0.00000000000000     0.00000000000000     0.00000000000001    -0.00000000000000
    5     0.00000000000001     0.00000000000001    -0.00000000000000     0.00000000000004    -0.00000000000002
    6     0.00000006388185    -0.00001219224679    -0.01528137164825     0.00000064076295     0.00000271488290
    7     0.00000000000000     0.00000000000000     0.00000000000001     0.00000000000000     0.00000000000000
    8    -0.00000000000000    -0.00000000000000    -0.00000000000000    -0.00000000000000     0.00000000000000
    9    -0.00000000000000     0.00000000000000    -0.00000000000000    -0.00000000000001    -0.00000000000003
   10    -0.01514285299416     0.01365590649520    -0.00001013478916    -0.02437901073321    -0.11985307941955
   11    -0.00000000000001     0.00000000000000     0.00000000000000    -0.00000000000001    -0.00000000000004
   12     0.00000000000000    -0.00000000000000     0.00000000000000     0.00000000000000     0.00000000000001
   13    -0.00000000000000    -0.00000000000000    -0.00000000000001    -0.00000000000000    -0.00000000000000
   14     0.00000018332905    -0.00002721514726    -0.03416362779649     0.00000047968302     0.00000410877363
   15    -0.01218737161514    -0.02978221379763     0.00002212664949    -0.06469591059003     0.01988206729707
   16     0.00000000000001     0.00000000000001    -0.00000000000001     0.00000000000003    -0.00000000000001
   17    -0.00000000000000    -0.00000000000000     0.00000000000001    -0.00000000000000     0.00000000000000
   18    -0.04664679309885     0.00448352057674    -0.00000340143231    -0.12169468755485    -0.13166485838977
   19    -0.00000045947739    -0.00000178515879    -0.00241516229200    -0.00000167517798    -0.00000087601059
   20    -0.00000000000000    -0.00000000000000    -0.00000000000000    -0.00000000000001     0.00000000000000
   21    -0.00000000000000     0.00000000000000    -0.00000000000000     0.00000000000000    -0.00000000000000
   22     0.00000000000000     0.00000000000000     0.00000000000000     0.00000000000000    -0.00000000000000
   23    -0.00000000000000     0.00000000000000    -0.00000000000000    -0.00000000000000    -0.00000000000000

                 6                   7                   8                   9                  10

    1    -0.00000000000004    -0.23527872846912    -0.00000000000000     0.00001019522128    -0.00000000000007
    2    -0.00000000000001    -0.00002955936912     0.00000000000002     0.82329093025014    -0.00000000000023
    3     0.00000029700882     0.00000000000011    -0.00104889896015     0.00000000000414    -0.00001612756040
    4    -0.00000000000000     0.52566500280213     0.00000000000001    -0.00049592160547    -0.00000000000001
    5     0.00000000000002     0.00173186495963     0.00000000000001     0.15473078983679    -0.00000000000001
    6     0.09212405364029    -0.00000000000006    -0.00000162420509     0.00000000000026     0.12464023132300
    7    -0.00000000000002    -0.00000016141487     0.00000000000001     0.42009030133511    -0.00000000000013
    8     0.00000000000001    -0.00441831011826    -0.00000000000000     0.00001518613333     0.00000000000000
    9     0.00000000000000    -0.00000955803783    -0.00000000000000    -0.08836938226628     0.00000000000002
   10     0.00000054166075    -0.00000000000003    -0.00782699946866     0.00000000000002    -0.00000129973922
   11     0.00000000000000     0.09234324777684    -0.00000000000000    -0.00000654070835     0.00000000000000
   12    -0.00000000000000     0.00000318491638    -0.00000000000000    -0.06225314184111     0.00000000000002
   13     0.00000000000002    -0.10372269892583    -0.00000000000000     0.00000011469679    -0.00000000000001
   14     0.09962170761762     0.00000000000005    -0.00000113129119     0.00000000000002    -0.01857064968404
   15     0.00000236334109    -0.00000000000000    -0.03487543901057    -0.00000000000005    -0.00000312995987
   16     0.00000000000002     0.00000066767428     0.00000000000002    -0.06989514106342     0.00000000000001
   17    -0.00000000000003     0.02790906803685    -0.00000000000000    -0.00000478731822    -0.00000000000000
   18     0.00000528455030     0.00000000000000    -0.06770208927406     0.00000000000000     0.00000628779849
   19     0.01247818124656     0.00000000000003    -0.00000104862704    -0.00000000000003    -0.10149031698173
   20     0.00000000000000     0.00000262838614    -0.00000000000000     0.04681422310681    -0.00000000000002
   21     0.00000000000001    -0.06294297996221    -0.00000000000000     0.00000453246029    -0.00000000000004
   22    -0.00000000000001     0.00000198267767     0.00000000000000    -0.02733656678881     0.00000000000001
   23    -0.00000000000000    -0.07679641744282    -0.00000000000000    -0.00000199099035    -0.00000000000000

                11                  12

    1     0.55912508453408     0.00000000000146
    2    -0.00000512012007    -0.00000000000253
    3    -0.00000000000145     0.51446481231015
    4    -0.37305251720073    -0.00000000000117
    5    -0.00123556317437    -0.00000000000045
    6     0.00000000000019     0.00000025975645
    7    -0.00001753820068    -0.00000000000000
    8     0.25384463366762     0.00000000000072
    9    -0.00000950349083     0.00000000000003
   10    -0.00000000000035     0.11281882513491
   11     0.11970707039251     0.00000000000037
   12     0.00000508008105    -0.00000000000001
   13    -0.15097372993685    -0.00000000000042
   14    -0.00000000000003    -0.00000108461131
   15    -0.00000000000013     0.04717111504605
   16    -0.00000119392547    -0.00000000000002
   17    -0.09470992949455    -0.00000000000026
   18     0.00000000000039    -0.14065117792454
   19     0.00000000000000    -0.00000344310513
   20    -0.00000623017552    -0.00000000000000
   21     0.04818808532005     0.00000000000013
   22     0.00000543900270     0.00000000000000
   23    -0.14921240704567    -0.00000000000042



  ## CPHF Coefficients for B(2) (Symmetry 0) ##
  Irrep: 1 Size: 23 x 12

                 1                   2                   3                   4                   5

    1     0.00000000000000     0.00000000000001     0.00000000000000     0.00000000000001    -0.00000000000003
    2     0.00000000000000     0.00000000000001     0.00000000000014     0.00000000000001    -0.00000000000002
    3    -0.00000000179717    -0.00002249037788    -0.02888335622769     0.00000056990961     0.00000362294964
    4    -0.00000000000000     0.00000000000000     0.00000000000001     0.00000000000000    -0.00000000000000
    5    -0.00000000000000    -0.00000000000001     0.00000000000003    -0.00000000000001     0.00000000000002
    6    -0.00005535428221    -0.02997853299757     0.00002335117309    -0.03484610956101     0.10347045644034
    7     0.00000000000000     0.00000000000001     0.00000000000000     0.00000000000001    -0.00000000000004
    8    -0.00000000000000    -0.00000000000000    -0.00000000000000    -0.00000000000000     0.00000000000001
    9     0.00000000000000    -0.00000000000000     0.00000000000001    -0.00000000000000     0.00000000000000
   10    -0.00000000686968     0.00002100714225     0.02685141173628    -0.00000043626406    -0.00000358471030
   11     0.00000000000000     0.00000000000000     0.00000000000001     0.00000000000000    -0.00000000000000
   12    -0.00000000000000     0.00000000000000    -0.00000000000000     0.00000000000000    -0.00000000000000
   13     0.00000000000000    -0.00000000000001     0.00000000000000    -0.00000000000002     0.00000000000003
   14     0.00000601817363    -0.06674403729936     0.00005206122022    -0.07210984713255     0.15075085130906
   15    -0.00000000212520    -0.00004549900209    -0.05818876866028     0.00000045146293     0.00000440476243
   16     0.00000000000000    -0.00000000000002     0.00000000000003    -0.00000000000002     0.00000000000003
   17     0.00000000000000     0.00000000000002    -0.00000000000000     0.00000000000002    -0.00000000000004
   18    -0.00000001268499     0.00000664258155     0.00867036434028    -0.00000036395292    -0.00000015589163
   19     0.00006176203999    -0.00459664706016     0.00000385470718    -0.02453999809662     0.03746341612009
   20    -0.00000000000000    -0.00000000000000    -0.00000000000001    -0.00000000000000     0.00000000000001
   21     0.00000000000000    -0.00000000000001     0.00000000000000    -0.00000000000002     0.00000000000003
   22    -0.00000000000000     0.00000000000000     0.00000000000000     0.00000000000001    -0.00000000000001
   23     0.00000000000000    -0.00000000000000     0.00000000000000    -0.00000000000000     0.00000000000000

                 6                   7                   8                   9                  10

    1    -0.00000000000002     0.00000333645162     0.00000000000002     1.22784469840525    -0.00000000000029
    2    -0.00000000000058    -0.13565332984393    -0.00000000000000     0.00002886341540     0.00000000000029
    3     0.11929562853595    -0.00000000000036    -0.00000093657014     0.00000000000005    -0.05995922474002
    4    -0.00000000000004    -0.00110520302612    -0.00000000000001    -0.45185454210284     0.00000000000013
    5    -0.00000000000011     0.33604184674758     0.00000000000001    -0.00149263923065     0.00000000000006
    6    -0.00000260699694    -0.00000000000026    -0.00158826917247     0.00000000000041     0.00000000487983
    7    -0.00000000000000    -0.59753187098313    -0.00000000000001    -0.00000099092349     0.00000000000000
    8     0.00000000000001    -0.00000127037791     0.00000000000001     0.45067983192007    -0.00000000000011
    9    -0.00000000000004     0.05136322351187     0.00000000000000     0.00000747364842     0.00000000000001
   10    -0.16247459933866    -0.00000000000002     0.00000075067257     0.00000000000003     0.05561870484273
   11    -0.00000000000005     0.00000351904384    -0.00000000000000    -0.05173328791979     0.00000000000003
   12     0.00000000000001     0.01747571150723     0.00000000000000    -0.00000171444391    -0.00000000000000
   13    -0.00000000000000    -0.00000031172114    -0.00000000000000     0.10927965766666    -0.00000000000003
   14    -0.00000436862855    -0.00000000000004    -0.02032610401497    -0.00000000000013     0.00000012451229
   15     0.15135818725592     0.00000000000008    -0.00000072086279    -0.00000000000001    -0.04687339891903
   16    -0.00000000000007     0.11545433178316    -0.00000000000000    -0.00000114459199     0.00000000000002
   17     0.00000000000001     0.00000003888714     0.00000000000000    -0.16253108919972     0.00000000000004
   18    -0.00985988270953     0.00000000000000     0.00000022403860    -0.00000000000000    -0.02166992669538
   19    -0.00000199352968     0.00000000000001    -0.02008764310310    -0.00000000000003    -0.00000027981043
   20     0.00000000000002    -0.08569212287170    -0.00000000000000    -0.00000582688491    -0.00000000000001
   21    -0.00000000000001    -0.00000383759686    -0.00000000000001     0.11559085863484    -0.00000000000003
   22    -0.00000000000001     0.03075147472811     0.00000000000000    -0.00000067663951     0.00000000000000
   23    -0.00000000000000     0.00000033776459    -0.00000000000000    -0.00216289222703     0.00000000000000

                11                  12

    1    -0.00002297281601     0.00000000000006
    2    -0.17573868788435    -0.00000000000047
    3    -0.00000000000156    -0.00000474696271
    4     0.00246424596751     0.00000000000000
    5    -0.74142089238023    -0.00000000000209
    6     0.00000000000046    -0.08548521915151
    7     0.38433374584890     0.00000000000109
    8    -0.00000721988682     0.00000000000000
    9    -0.19241240467631    -0.00000000000054
   10     0.00000000000005     0.00000119166768
   11    -0.00002108370235    -0.00000000000000
   12    -0.08195544524579    -0.00000000000023
   13    -0.00000260918763     0.00000000000000
   14     0.00000000000003    -0.00274625275438
   15    -0.00000000000005    -0.00000188150953
   16    -0.08320205582284    -0.00000000000023
   17     0.00000314857987     0.00000000000000
   18    -0.00000000000000    -0.00000038007399
   19    -0.00000000000017     0.06040908281371
   20     0.01852205819224     0.00000000000006
   21    -0.00000243512373     0.00000000000002
   22    -0.04846959498005    -0.00000000000014
   23     0.00000084527212     0.00000000000000



  Irrep: 1 Size: 7 x 3

                 1                   2                   3

    1     0.00000000000000     0.00000000000000     1.61193639000000
    2     0.00000000000000    -1.38138904000000    -0.70621430400000
    3     0.00000000000000     1.38139057000000    -0.70625141200000
    4    -1.74897659000000    -2.37947253000000    -1.10195390000000
    5     1.74897659000000    -2.37947253000000    -1.10195390000000
    6     1.74897659000000     2.37946343000000    -1.10201782000000
    7    -1.74897659000000     2.37946343000000    -1.10201782000000



  ## AAT Electronic Component (Symmetry 0) ##
  Irrep: 1 Size: 21 x 3

                 1                   2                   3

    1     0.00000000000000    -1.30238208066785     0.00001077548024
    2     1.24671557472585     0.00000000000000    -0.00000000000000
    3    -0.00000062315911    -0.00000000000000    -0.00000000000000
    4    -0.00000000000001     0.67841664360791    -1.07054648806802
    5    -0.50047240255068    -0.00000000000000    -0.00000000000000
    6     0.66019230651920    -0.00000000000001     0.00000000000000
    7     0.00000000000001     0.67843172330722     1.07054709979412
    8    -0.50048407366461     0.00000000000001     0.00000000000002
    9    -0.66018516925577     0.00000000000001     0.00000000000000
   10    -0.01391844217670     0.25694116792524    -0.48716068779637
   11    -0.09144615268645     0.02888018975441     0.11803290633968
   12     0.20224692614044    -0.21949065440992    -0.03036911399144
   13     0.01391844217671     0.25694116792524    -0.48716068779636
   14    -0.09144615268645    -0.02888018975439    -0.11803290633970
   15     0.20224692614043     0.21949065440993     0.03036911399143
   16    -0.01391908602689     0.25694991442468     0.48715429750016
   17    -0.09144751263876     0.02888119393215    -0.11803117414807
   18    -0.20224405490903     0.21948947221943    -0.03037359622362
   19     0.01391908602689     0.25694991442467     0.48715429750015
   20    -0.09144751263876    -0.02888119393213     0.11803117414810
   21    -0.20224405490903    -0.21948947221944     0.03037359622360



  ## AAT Nuclear Component (Symmetry 0) ##
  Irrep: 1 Size: 21 x 3

                 1                   2                   3

    1     0.00000000000000     3.22387278000000     0.00000000000000
    2    -3.22387278000000     0.00000000000000     0.00000000000000
    3     0.00000000000000     0.00000000000000     0.00000000000000
    4     0.00000000000000    -1.05932145600000     2.07208356000000
    5     1.05932145600000     0.00000000000000     0.00000000000000
    6    -2.07208356000000     0.00000000000000     0.00000000000000
    7     0.00000000000000    -1.05937711800000    -2.07208585500000
    8     1.05937711800000     0.00000000000000     0.00000000000000
    9     2.07208585500000     0.00000000000000     0.00000000000000
   10     0.00000000000000    -0.27548847500000     0.59486813250000
   11     0.27548847500000     0.00000000000000    -0.43724414750000
   12    -0.59486813250000     0.43724414750000     0.00000000000000
   13     0.00000000000000    -0.27548847500000     0.59486813250000
   14     0.27548847500000     0.00000000000000     0.43724414750000
   15    -0.59486813250000    -0.43724414750000     0.00000000000000
   16     0.00000000000000    -0.27550445500000    -0.59486585750000
   17     0.27550445500000     0.00000000000000     0.43724414750000
   18     0.59486585750000    -0.43724414750000     0.00000000000000
   19     0.00000000000000    -0.27550445500000    -0.59486585750000
   20     0.27550445500000     0.00000000000000    -0.43724414750000
   21     0.59486585750000     0.43724414750000     0.00000000000000



  ## AAT Total (Symmetry 0) ##
  Irrep: 1 Size: 21 x 3

                 1                   2                   3

    1     0.00000000000000     1.92149069933215     0.00001077548024
    2    -1.97715720527415     0.00000000000000    -0.00000000000000
    3    -0.00000062315911    -0.00000000000000    -0.00000000000000
    4    -0.00000000000001    -0.38090481239209     1.00153707193198
    5     0.55884905344932    -0.00000000000000    -0.00000000000000
    6    -1.41189125348080    -0.00000000000001     0.00000000000000
    7     0.00000000000001    -0.38094539469278    -1.00153875520588
    8     0.55889304433539     0.00000000000001     0.00000000000002
    9     1.41190068574423     0.00000000000001     0.00000000000000
   10    -0.01391844217670    -0.01854730707476     0.10770744470363
   11     0.18404232231355     0.02888018975441    -0.31921124116032
   12    -0.39262120635956     0.21775349309008    -0.03036911399144
   13     0.01391844217671    -0.01854730707476     0.10770744470364
   14     0.18404232231355    -0.02888018975439     0.31921124116030
   15    -0.39262120635957    -0.21775349309007     0.03036911399143
   16    -0.01391908602689    -0.01855454057532    -0.10771155999984
   17     0.18405694236124     0.02888119393215     0.31921297335193
   18     0.39262180259097    -0.21775467528057    -0.03037359622362
   19     0.01391908602689    -0.01855454057533    -0.10771155999985
   20     0.18405694236124    -0.02888119393213    -0.31921297335190
   21     0.39262180259097     0.21775467528056     0.03037359622360




    Psi4 stopped on: Sunday, 01 November 2020 03:47PM
    Psi4 wall time for execution: 0:00:17.01

*** Psi4 exiting successfully. Buy a developer a beer!
