
    -----------------------------------------------------------------------
          Psi4: An Open-Source Ab Initio Electronic Structure Package
                               Psi4 undefined 

                         Git: Rev {master} 91a87a5 


    D. G. A. Smith, L. A. Burns, A. C. Simmonett, R. M. Parrish,
    M. C. Schieber, R. Galvelis, P. Kraus, H. Kruse, R. Di Remigio,
    A. Alenaizan, A. M. James, S. Lehtola, J. P. Misiewicz, M. Scheurer,
    R. A. Shaw, J. B. Schriber, Y. Xie, Z. L. Glick, D. A. Sirianni,
    J. S. O'Brien, J. M. Waldrop, A. Kumar, E. G. Hohenstein,
    B. P. Pritchard, B. R. Brooks, H. F. Schaefer III, A. Yu. Sokolov,
    K. Patkowski, A. E. DePrince III, U. Bozkaya, R. A. King,
    F. A. Evangelista, J. M. Turney, T. D. Crawford, C. D. Sherrill,
    J. Chem. Phys. 152(18) 184108 (2020). https://doi.org/10.1063/5.0006002

                            Additional Code Authors
    E. T. Seidl, C. L. Janssen, E. F. Valeev, M. L. Leininger,
    J. F. Gonthier, R. M. Richard, H. R. McAlexander, M. Saitow, X. Wang,
    P. Verma, and M. H. Lechner

             Previous Authors, Complete List of Code Contributors,
                       and Citations for Specific Modules
    https://github.com/psi4/psi4/blob/master/codemeta.json
    https://github.com/psi4/psi4/graphs/contributors
    http://psicode.org/psi4manual/master/introduction.html#citing-psifour

    -----------------------------------------------------------------------


    Psi4 started on: Saturday, 31 October 2020 08:14PM

    Process ID: 65502
    Host:       n2d037861.cns.vt.edu
    PSIDATADIR: /Users/crawdad/psi4/share/psi4
    Memory:     500.0 MiB
    Threads:    1
    
  ==> Input File <==

--------------------------------------------------------------------------
# PYTHONPATH must include directory above plugin directory.
#     Define either externally or here, then import plugin.
sys.path.insert(0, './../..')
import vcd

molecule ethylene_oxide {
O       0.0000000000        0.0000000000        1.6119363900
C       0.0000000000       -1.3813890400       -0.7062143040
C       0.0000000000        1.3813905700       -0.7062514120
H      -1.7489765900       -2.3794725300       -1.1019539000
H       1.7489765900       -2.3794725300       -1.1019539000
H       1.7489765900        2.3794634300       -1.1020178200
H      -1.7489765900        2.3794634300       -1.1020178200
symmetry c1
no_reorient
no_com
units bohr
}

set {
  basis 4-31g
  freeze_core false
  dertype none
  e_convergence 13
  r_convergence 13
  r_convergence 13
  scf_type pk
  print_mos true
}

gradient('mp2')
--------------------------------------------------------------------------

Scratch directory: /tmp/
gradient() will perform analytic gradient computation.

*** tstart() called on n2d037861.cns.vt.edu
*** at Sat Oct 31 20:14:52 2020

   => Loading Basis Set <=

    Name: 4-31G
    Role: ORBITAL
    Keyword: BASIS
    atoms 1   entry O          line    38 file /Users/crawdad/src/vcd/amos/4-31g.gbs 
    atoms 2-3 entry C          line    25 file /Users/crawdad/src/vcd/amos/4-31g.gbs 
    atoms 4-7 entry H          line    17 file /Users/crawdad/src/vcd/amos/4-31g.gbs 


         ---------------------------------------------------------
                                   SCF
               by Justin Turney, Rob Parrish, Andy Simmonett
                          and Daniel G. A. Smith
                              RHF Reference
                        1 Threads,    500 MiB Core
         ---------------------------------------------------------

  ==> Geometry <==

    Molecular point group: c1
    Full point group: Cs

    Geometry (in Bohr), charge = 0, multiplicity = 1:

       Center              X                  Y                   Z               Mass       
    ------------   -----------------  -----------------  -----------------  -----------------
         O            0.000000000000     0.000000000000     1.611936390000    15.994914619570
         C            0.000000000000    -1.381389040000    -0.706214304000    12.000000000000
         C            0.000000000000     1.381390570000    -0.706251412000    12.000000000000
         H           -1.748976590000    -2.379472530000    -1.101953900000     1.007825032230
         H            1.748976590000    -2.379472530000    -1.101953900000     1.007825032230
         H            1.748976590000     2.379463430000    -1.102017820000     1.007825032230
         H           -1.748976590000     2.379463430000    -1.102017820000     1.007825032230

  Running in c1 symmetry.

  Rotational constants: A =      0.85079  B =      0.74363  C =      0.47383 [cm^-1]
  Rotational constants: A =  25506.01012  B =  22293.46651  C =  14205.14003 [MHz]
  Nuclear repulsion =   75.369053384843525

  Charge       = 0
  Multiplicity = 1
  Electrons    = 24
  Nalpha       = 12
  Nbeta        = 12

  ==> Algorithm <==

  SCF Algorithm Type is PK.
  DIIS enabled.
  MOM disabled.
  Fractional occupation disabled.
  Guess Type is SAD.
  Energy threshold   = 1.00e-13
  Density threshold  = 1.00e-10
  Integral threshold = 0.00e+00

  ==> Primary Basis <==

  Basis Set: 4-31G
    Blend: 4-31G
    Number of shells: 23
    Number of basis function: 35
    Number of Cartesian functions: 35
    Spherical Harmonics?: false
    Max angular momentum: 1

  ==> Integral Setup <==

  Using in-core PK algorithm.
   Calculation information:
      Number of atoms:                   7
      Number of AO shells:              23
      Number of primitives:             52
      Number of atomic orbitals:        35
      Number of basis functions:        35

      Integral cutoff                 1.00e-12
      Number of threads:                 1

  Performing in-core PK
  Using 397530 doubles for integral storage.
  We computed 38174 shell quartets total.
  Whereas there are 38226 unique shell quartets.

  ==> DiskJK: Disk-Based J/K Matrices <==

    J tasked:                  Yes
    K tasked:                  Yes
    wK tasked:                  No
    Memory [MiB]:              375
    Schwarz Cutoff:          1E-12

    OpenMP threads:              1

  Minimum eigenvalue in the overlap matrix is 1.0404261904E-02.
  Reciprocal condition number of the overlap matrix is 2.1934359597E-03.
    Using symmetric orthogonalization.

  ==> Pre-Iterations <==

  SCF Guess: Superposition of Atomic Densities via on-the-fly atomic UHF (no occupation information).

   -------------------------
    Irrep   Nso     Nmo    
   -------------------------
     A         35      35 
   -------------------------
    Total      35      35
   -------------------------

  ==> Iterations <==

                        Total Energy        Delta E     RMS |[F,P]|

   @RHF iter SAD:  -152.15386780869883   -1.52154e+02   0.00000e+00 
   @RHF iter   1:  -152.58458638794846   -4.30719e-01   7.65183e-03 DIIS
   @RHF iter   2:  -152.61443033109117   -2.98439e-02   4.75071e-03 DIIS
   @RHF iter   3:  -152.62441707519420   -9.98674e-03   7.79081e-04 DIIS
   @RHF iter   4:  -152.62493862178155   -5.21547e-04   1.08714e-04 DIIS
   @RHF iter   5:  -152.62495172224288   -1.31005e-05   3.25799e-05 DIIS
   @RHF iter   6:  -152.62495280632791   -1.08409e-06   8.75308e-06 DIIS
   @RHF iter   7:  -152.62495291467087   -1.08343e-07   1.17670e-06 DIIS
   @RHF iter   8:  -152.62495291677013   -2.09926e-09   1.53519e-07 DIIS
   @RHF iter   9:  -152.62495291681549   -4.53610e-11   3.11886e-08 DIIS
   @RHF iter  10:  -152.62495291681716   -1.67688e-12   4.61863e-09 DIIS
   @RHF iter  11:  -152.62495291681711    5.68434e-14   1.30689e-09 DIIS
   @RHF iter  12:  -152.62495291681734   -2.27374e-13   2.40981e-10 DIIS
   @RHF iter  13:  -152.62495291681716    1.70530e-13   5.27090e-11 DIIS
   @RHF iter  14:  -152.62495291681725   -8.52651e-14   1.86375e-11 DIIS
  Energy and wave function converged.


  ==> Post-Iterations <==

    Orbital Energies [Eh]
    ---------------------

    Doubly Occupied:                                                      

       1A    -20.538482     2A    -11.272392     3A    -11.271962  
       4A     -1.431790     5A     -0.936788     6A     -0.867470  
       7A     -0.717235     8A     -0.653646     9A     -0.549512  
      10A     -0.539827    11A     -0.450508    12A     -0.450131  

    Virtual:                                                              

      13A      0.242437    14A      0.273485    15A      0.278722  
      16A      0.303790    17A      0.304762    18A      0.358268  
      19A      0.466279    20A      0.762609    21A      0.863637  
      22A      0.876191    23A      0.878488    24A      0.954285  
      25A      1.029942    26A      1.137755    27A      1.172086  
      28A      1.209452    29A      1.265583    30A      1.373029  
      31A      1.387828    32A      1.427909    33A      1.457878  
      34A      1.790302    35A      2.156192  

    Final Occupation by Irrep:
              A 
    DOCC [    12 ]

  @RHF Final Energy:  -152.62495291681725

   => Energetics <=

    Nuclear Repulsion Energy =             75.3690533848435251
    One-Electron Energy =                -356.6285262990230649
    Two-Electron Energy =                 128.6345199973622755
    Total Energy =                       -152.6249529168172501

Computation Completed


Properties will be evaluated at   0.000000,   0.000000,   0.000000 [a0]

Properties computed using the SCF density matrix

  Nuclear Dipole Moment: [e a0]
     X:     0.0000      Y:    -0.0000      Z:     0.0128

  Electronic Dipole Moment: [e a0]
     X:    -0.0000      Y:     0.0000      Z:    -1.1398

  Dipole Moment: [e a0]
     X:    -0.0000      Y:    -0.0000      Z:    -1.1271     Total:     1.1271

  Dipole Moment: [D]
     X:    -0.0000      Y:    -0.0000      Z:    -2.8647     Total:     2.8647


  ==> Molecular Orbitals <==

                            1            2            3            4            5

 1    O1 s          0.9919872    0.0000839   -0.0000001    0.1825134    0.1220664
 2    O1 s          0.0526021    0.0003898   -0.0000002   -0.3598322   -0.2425136
 3    O1 px         0.0000000    0.0000000    0.0000000   -0.0000000   -0.0000000
 4    O1 py        -0.0000000   -0.0000005   -0.0006475    0.0000029    0.0000039
 5    O1 pz        -0.0035982    0.0000054   -0.0000001    0.1300904   -0.1037669
 6    O1 s         -0.0313440    0.0028609   -0.0000025   -0.4738556   -0.4511901
 7    O1 px         0.0000000   -0.0000000   -0.0000000   -0.0000000   -0.0000000
 8    O1 py         0.0000002    0.0000034    0.0044231    0.0000016    0.0000027
 9    O1 pz         0.0100001    0.0016962   -0.0000013    0.1085191   -0.0125063
 10   C2 s         -0.0000547    0.7018972   -0.7032184    0.0819337   -0.1214121
 11   C2 s         -0.0004829    0.0396406   -0.0430967   -0.1444104    0.2120570
 12   C2 px         0.0000000   -0.0000000   -0.0000000    0.0000000    0.0000000
 13   C2 py         0.0003764    0.0000961   -0.0014056   -0.0852053    0.0518279
 14   C2 pz         0.0012343    0.0008614   -0.0005058   -0.0745447   -0.0906219
 15   C2 s          0.0080603   -0.0209491    0.0430336   -0.0554029    0.2772553
 16   C2 px        -0.0000000    0.0000000    0.0000000   -0.0000000   -0.0000000
 17   C2 py         0.0019092    0.0015199    0.0091988    0.0076878    0.0199467
 18   C2 pz         0.0047853   -0.0004158    0.0011259    0.0193665   -0.0246013
 19   C3 s         -0.0000547    0.7029843    0.7021317    0.0819312   -0.1214184
 20   C3 s         -0.0004829    0.0397071    0.0430353   -0.1444059    0.2120676
 21   C3 px        -0.0000000   -0.0000000   -0.0000000    0.0000000   -0.0000000
 22   C3 py        -0.0003764   -0.0000983   -0.0014055    0.0852026   -0.0518257
 23   C3 pz         0.0012343    0.0008621    0.0005045   -0.0745420   -0.0906174
 24   C3 s          0.0080595   -0.0210154   -0.0430008   -0.0554034    0.2772680
 25   C3 px         0.0000000    0.0000000    0.0000000    0.0000000    0.0000000
 26   C3 py        -0.0019088   -0.0015057    0.0092012   -0.0076867   -0.0199459
 27   C3 pz         0.0047850   -0.0004175   -0.0011253    0.0193651   -0.0246017
 28   H4 s         -0.0007106   -0.0010113   -0.0000178   -0.0240054    0.0927085
 29   H4 s         -0.0001454    0.0055781   -0.0050560    0.0037029    0.0223825
 30   H5 s         -0.0007106   -0.0010113   -0.0000178   -0.0240054    0.0927085
 31   H5 s         -0.0001454    0.0055781   -0.0050560    0.0037029    0.0223825
 32   H6 s         -0.0007105   -0.0010113    0.0000193   -0.0240047    0.0927140
 33   H6 s         -0.0001454    0.0055859    0.0050474    0.0037028    0.0223841
 34   H7 s         -0.0007105   -0.0010113    0.0000193   -0.0240047    0.0927140
 35   H7 s         -0.0001454    0.0055859    0.0050474    0.0037028    0.0223841

            Ene   -20.5384817  -11.2723920  -11.2719624   -1.4317904   -0.9367881
            Sym             A            A            A            A            A
            Occ             2            2            2            2            2


                            6            7            8            9           10

 1    O1 s         -0.0000041    0.0000000    0.0544217   -0.0000000   -0.0000021
 2    O1 s          0.0000076   -0.0000000   -0.1200179    0.0000000    0.0000043
 3    O1 px         0.0000000    0.2734454    0.0000000    0.0000107   -0.0000000
 4    O1 py         0.1855342   -0.0000000    0.0000014    0.0000000    0.4750447
 5    O1 pz         0.0000041   -0.0000000   -0.3076349    0.0000000    0.0000147
 6    O1 s          0.0000170   -0.0000000   -0.1887086   -0.0000000    0.0000085
 7    O1 px        -0.0000000    0.1649775   -0.0000000    0.0000078   -0.0000000
 8    O1 py         0.0847868    0.0000000    0.0000010    0.0000000    0.3303860
 9    O1 pz         0.0000001    0.0000000   -0.2124308    0.0000000    0.0000106
 10   C2 s          0.1283812   -0.0000000    0.0082740   -0.0000000   -0.0063753
 11   C2 s         -0.2118338   -0.0000000    0.0099845   -0.0000000    0.0248642
 12   C2 px        -0.0000000    0.2795432    0.0000000    0.3071213   -0.0000000
 13   C2 py         0.1114314    0.0000000    0.3089110   -0.0000000   -0.1020554
 14   C2 pz        -0.0301562    0.0000000    0.0871121   -0.0000000   -0.2314789
 15   C2 s         -0.3714009    0.0000000   -0.0771123    0.0000000   -0.0735872
 16   C2 px         0.0000000    0.1567097    0.0000000    0.2197317   -0.0000000
 17   C2 py         0.0064490    0.0000000    0.1178948    0.0000000   -0.0955937
 18   C2 pz        -0.0104859    0.0000000    0.0042026   -0.0000000   -0.1492309
 19   C3 s         -0.1283767    0.0000000    0.0082747    0.0000000    0.0063749
 20   C3 s          0.2118251    0.0000000    0.0099822    0.0000000   -0.0248669
 21   C3 px         0.0000000    0.2795393   -0.0000000   -0.3071302    0.0000000
 22   C3 py         0.1114312   -0.0000000   -0.3089080   -0.0000000   -0.1020646
 23   C3 pz         0.0301567   -0.0000000    0.0871192    0.0000000    0.2314609
 24   C3 s          0.3713893   -0.0000000   -0.0771111   -0.0000000    0.0735944
 25   C3 px        -0.0000000    0.1567065   -0.0000000   -0.2197355    0.0000000
 26   C3 py         0.0064489    0.0000000   -0.1178954    0.0000000   -0.0956015
 27   C3 pz         0.0104873   -0.0000000    0.0042070    0.0000000    0.1492277
 28   H4 s         -0.1271875   -0.1270042   -0.1090699   -0.1896561    0.0881071
 29   H4 s         -0.0446758   -0.0590060   -0.0782352   -0.1307592    0.0664398
 30   H5 s         -0.1271875    0.1270042   -0.1090699    0.1896561    0.0881071
 31   H5 s         -0.0446758    0.0590060   -0.0782352    0.1307592    0.0664398
 32   H6 s          0.1271833    0.1270029   -0.1090706   -0.1896622   -0.0881091
 33   H6 s          0.0446747    0.0590058   -0.0782355   -0.1307644   -0.0664403
 34   H7 s          0.1271833   -0.1270029   -0.1090706    0.1896622   -0.0881091
 35   H7 s          0.0446747   -0.0590058   -0.0782355    0.1307644   -0.0664403

            Ene    -0.8674695   -0.7172352   -0.6536456   -0.5495120   -0.5398270
            Sym             A            A            A            A            A
            Occ             2            2            2            2            2


                           11           12           13           14           15

 1    O1 s         -0.0000000    0.0378687    0.0027446   -0.0000043    0.0000000
 2    O1 s          0.0000000   -0.0991189   -0.0015352    0.0000046   -0.0000000
 3    O1 px         0.5764629    0.0000000    0.0000000    0.0000000    0.0967322
 4    O1 py         0.0000000    0.0000162   -0.0000064    0.1948144   -0.0000000
 5    O1 pz         0.0000000   -0.3560551    0.0358597   -0.0000182    0.0000000
 6    O1 s          0.0000000   -0.0958416    0.0133472    0.0000601   -0.0000000
 7    O1 px         0.4907669    0.0000000    0.0000000    0.0000000    0.2479231
 8    O1 py         0.0000000    0.0000130   -0.0000084    0.2995610   -0.0000000
 9    O1 pz         0.0000000   -0.3346516    0.0282767   -0.0000429    0.0000000
 10   C2 s         -0.0000000    0.0065771   -0.0864871    0.0841281   -0.0000000
 11   C2 s         -0.0000000    0.0086996    0.0632049   -0.0347732   -0.0000000
 12   C2 px        -0.1373148   -0.0000000   -0.0000000   -0.0000000   -0.2470456
 13   C2 py         0.0000000   -0.2297120   -0.1156451   -0.0780663    0.0000000
 14   C2 pz        -0.0000000    0.2574858   -0.0366929    0.2345858   -0.0000000
 15   C2 s          0.0000000   -0.0861028    1.3437857   -1.3460293    0.0000000
 16   C2 px        -0.0501706   -0.0000000   -0.0000000    0.0000000   -0.8386171
 17   C2 py         0.0000000   -0.1752593   -0.5191020   -0.3418180    0.0000000
 18   C2 pz        -0.0000000    0.1387195   -0.1476281    0.6659513   -0.0000000
 19   C3 s         -0.0000000    0.0065773   -0.0864880   -0.0841244    0.0000000
 20   C3 s         -0.0000000    0.0086977    0.0632071    0.0347698   -0.0000000
 21   C3 px        -0.1373028   -0.0000000   -0.0000000   -0.0000000   -0.2470470
 22   C3 py        -0.0000000    0.2297142    0.1156486   -0.0780562    0.0000000
 23   C3 pz        -0.0000000    0.2574971   -0.0366830   -0.2345993    0.0000000
 24   C3 s          0.0000000   -0.0860920    1.3437900    1.3460186   -0.0000000
 25   C3 px        -0.0501598   -0.0000000   -0.0000000   -0.0000000   -0.8386208
 26   C3 py        -0.0000000    0.1752566    0.5191129   -0.3417870    0.0000000
 27   C3 pz        -0.0000000    0.1387322   -0.1476142   -0.6660191    0.0000000
 28   H4 s          0.1126426    0.0476987   -0.0236354    0.0163194   -0.0322237
 29   H4 s          0.1179421    0.0395121   -0.9350583    0.5848023   -1.0592469
 30   H5 s         -0.1126426    0.0476987   -0.0236354    0.0163194    0.0322237
 31   H5 s         -0.1179421    0.0395121   -0.9350583    0.5848023    1.0592469
 32   H6 s         -0.1126332    0.0476930   -0.0236355   -0.0163201    0.0322239
 33   H6 s         -0.1179342    0.0395079   -0.9350656   -0.5848281    1.0592536
 34   H7 s          0.1126332    0.0476930   -0.0236355   -0.0163201   -0.0322239
 35   H7 s          0.1179342    0.0395079   -0.9350656   -0.5848281   -1.0592536

            Ene    -0.4505084   -0.4501308    0.2424368    0.2734850    0.2787216
            Sym             A            A            A            A            A
            Occ             2            2            0            0            0


                           16           17           18           19           20

 1    O1 s          0.0983539    0.0003250    0.0000000    0.0000023    0.0181176
 2    O1 s         -0.1013227   -0.0003336   -0.0000000    0.0000001   -0.1518618
 3    O1 px        -0.0000000    0.0000000   -0.0000009   -0.0000000    0.0000000
 4    O1 py        -0.0008654    0.2633284   -0.0000000    0.1883676   -0.0000001
 5    O1 pz         0.3214036    0.0010575    0.0000000    0.0000041    0.1778304
 6    O1 s         -1.4376920   -0.0047628   -0.0000000   -0.0000683    0.7046033
 7    O1 px        -0.0000000    0.0000000   -0.0000061   -0.0000000   -0.0000000
 8    O1 py        -0.0016166    0.4934189   -0.0000000    0.6600285    0.0000174
 9    O1 pz         0.8488701    0.0028028    0.0000000    0.0000281   -0.1827417
 10   C2 s         -0.0587380   -0.0769721    0.0000000   -0.0905873    0.0098078
 11   C2 s          0.0415911    0.0665803    0.0000000    0.0327250    0.1510815
 12   C2 px         0.0000000   -0.0000000    0.2510539    0.0000000   -0.0000000
 13   C2 py         0.1087363   -0.1691995   -0.0000000    0.1880711    0.6175871
 14   C2 pz         0.1285392    0.1491340   -0.0000000    0.1305195    0.1716484
 15   C2 s          0.5367664    1.0458243   -0.0000000    2.0487145    0.2152887
 16   C2 px        -0.0000000   -0.0000000    1.3776479    0.0000000   -0.0000000
 17   C2 py         0.3410441   -0.5465959   -0.0000000    2.1496374   -1.0586777
 18   C2 pz         0.8178792    0.3569585   -0.0000000    0.5920923   -0.3485126
 19   C3 s         -0.0592565    0.0765803   -0.0000000    0.0905840    0.0098080
 20   C3 s          0.0420402   -0.0663045   -0.0000000   -0.0327258    0.1510851
 21   C3 px         0.0000000    0.0000000   -0.2510518   -0.0000000    0.0000000
 22   C3 py        -0.1076367   -0.1699102   -0.0000000    0.1880677   -0.6175947
 23   C3 pz         0.1295102   -0.1482854    0.0000000   -0.1305302    0.1716761
 24   C3 s          0.5437977   -1.0422024    0.0000000   -2.0486547    0.2152546
 25   C3 px         0.0000000    0.0000000   -1.3776406   -0.0000000   -0.0000000
 26   C3 py        -0.3375054   -0.5488273   -0.0000000    2.1496036    1.0587164
 27   C3 pz         0.8201426   -0.3515311    0.0000000   -0.5920866   -0.3485773
 28   H4 s          0.0202840   -0.0067683   -0.0094380    0.0923880   -0.2143632
 29   H4 s          0.0051167   -0.8117627    1.3379321    0.4042116   -0.0672342
 30   H5 s          0.0202840   -0.0067683    0.0094380    0.0923880   -0.2143632
 31   H5 s          0.0051167   -0.8117627   -1.3379321    0.4042116   -0.0672342
 32   H6 s          0.0202379    0.0069044   -0.0094377   -0.0923820   -0.2143742
 33   H6 s         -0.0002747    0.8117473    1.3379243   -0.4042218   -0.0672385
 34   H7 s          0.0202379    0.0069044    0.0094377   -0.0923820   -0.2143742
 35   H7 s         -0.0002747    0.8117473   -1.3379243   -0.4042218   -0.0672385

            Ene     0.3037903    0.3047616    0.3582675    0.4662786    0.7626093
            Sym             A            A            A            A            A
            Occ             0            0            0            0            0


                           21           22           23           24           25

 1    O1 s         -0.0000021   -0.0000000    0.0326793    0.0000014    0.0343623
 2    O1 s          0.0000258    0.0000000   -0.2238135   -0.0000052   -0.2146578
 3    O1 px        -0.0000000    0.2588700    0.0000000   -0.0000000   -0.0000000
 4    O1 py         0.1072258    0.0000000    0.0000151    0.2053208    0.0000009
 5    O1 pz        -0.0000391   -0.0000000    0.3067001    0.0000075   -0.2806654
 6    O1 s         -0.0000561   -0.0000000    0.4074467    0.0000043   -0.4386398
 7    O1 px        -0.0000000    0.1641558    0.0000000   -0.0000000    0.0000000
 8    O1 py        -0.2256284   -0.0000000   -0.0000219    0.1065021    0.0000043
 9    O1 pz         0.0000160   -0.0000000    0.0464696    0.0000059    0.3913783
 10   C2 s         -0.0216096    0.0000000   -0.0257020   -0.0635517   -0.0558948
 11   C2 s          0.2087438   -0.0000000    0.0551823    0.2507663   -0.5091962
 12   C2 px        -0.0000000    0.3737863    0.0000000   -0.0000000    0.0000000
 13   C2 py         0.1843099    0.0000000   -0.2277986    0.6865211   -0.2632415
 14   C2 pz         0.7278433   -0.0000000    0.7302512   -0.2805283   -0.1533100
 15   C2 s         -0.5489457    0.0000000   -0.1035653   -0.4411740    0.9206630
 16   C2 px         0.0000000   -0.9152053   -0.0000000    0.0000000   -0.0000000
 17   C2 py        -0.6032851   -0.0000000    0.2668521   -1.0167101    0.0846729
 18   C2 pz        -1.1226893    0.0000000   -0.5972422    0.3676548    0.2396307
 19   C3 s          0.0216160    0.0000000   -0.0256972    0.0635515   -0.0558940
 20   C3 s         -0.2087487   -0.0000000    0.0551262   -0.2507466   -0.5092128
 21   C3 px         0.0000000    0.3737910    0.0000000    0.0000000    0.0000000
 22   C3 py         0.1842107   -0.0000000    0.2278410    0.6865213    0.2632576
 23   C3 pz        -0.7280399   -0.0000000    0.7300278    0.2805529   -0.1533079
 24   C3 s          0.5489889    0.0000000   -0.1034504    0.4411654    0.9206816
 25   C3 px        -0.0000000   -0.9152186   -0.0000000   -0.0000000   -0.0000000
 26   C3 py        -0.6031670    0.0000000   -0.2669658   -1.0167151   -0.0846930
 27   C3 pz         1.1228736    0.0000000   -0.5969269   -0.3676556    0.2396058
 28   H4 s         -0.1600112   -0.4676225   -0.0845624   -0.2763401   -0.5527756
 29   H4 s         -0.0599707   -0.1101881    0.0350565   -0.0318399    0.1111062
 30   H5 s         -0.1600112    0.4676225   -0.0845624   -0.2763401   -0.5527756
 31   H5 s         -0.0599707    0.1101881    0.0350565   -0.0318399    0.1111062
 32   H6 s          0.1600278    0.4676286   -0.0845348    0.2763479   -0.5527759
 33   H6 s          0.0599609    0.1101882    0.0350690    0.0318344    0.1111086
 34   H7 s          0.1600278   -0.4676286   -0.0845348    0.2763479   -0.5527759
 35   H7 s          0.0599609   -0.1101882    0.0350690    0.0318344    0.1111086

            Ene     0.8636372    0.8761905    0.8784878    0.9542847    1.0299425
            Sym             A            A            A            A            A
            Occ             0            0            0            0            0


                           26           27           28           29           30

 1    O1 s         -0.0000000    0.0000000    0.0000002    0.0361762    0.0000000
 2    O1 s          0.0000000   -0.0000000   -0.0000039   -0.2110324   -0.0000000
 3    O1 px        -0.0000033    0.2327090    0.0000000   -0.0000000    0.9176452
 4    O1 py         0.0000000   -0.0000000    0.2518736   -0.0000072    0.0000000
 5    O1 pz         0.0000000   -0.0000000    0.0000013   -0.5008682   -0.0000000
 6    O1 s          0.0000000   -0.0000000    0.0000061   -0.3244600    0.0000000
 7    O1 px         0.0000098   -0.4521819   -0.0000000    0.0000000   -1.2302055
 8    O1 py         0.0000000    0.0000000   -0.2753506    0.0000095   -0.0000000
 9    O1 pz        -0.0000000    0.0000000   -0.0000047    0.8341509    0.0000000
 10   C2 s         -0.0000000    0.0000000   -0.0382936    0.0064093    0.0000000
 11   C2 s         -0.0000000   -0.0000000    0.3103674   -0.9802230    0.0000000
 12   C2 px         0.8761815   -0.7565584   -0.0000000    0.0000000    0.1022070
 13   C2 py        -0.0000000    0.0000000   -0.5779017    0.2263374    0.0000000
 14   C2 pz        -0.0000000    0.0000000   -0.1255830    0.2450806    0.0000000
 15   C2 s          0.0000000    0.0000000   -0.0628931    1.7749565   -0.0000000
 16   C2 px        -2.0606953    1.0896479    0.0000000   -0.0000000    0.2994764
 17   C2 py         0.0000000   -0.0000000    1.1716080   -0.2152210   -0.0000000
 18   C2 pz        -0.0000000   -0.0000000    0.0824959   -0.0641518   -0.0000000
 19   C3 s          0.0000000   -0.0000000    0.0382926    0.0064078    0.0000000
 20   C3 s          0.0000000   -0.0000000   -0.3103639   -0.9802374   -0.0000000
 21   C3 px        -0.8761722   -0.7565679    0.0000000   -0.0000000    0.1022051
 22   C3 py        -0.0000000    0.0000000   -0.5778953   -0.2263426   -0.0000000
 23   C3 pz        -0.0000000   -0.0000000    0.1255964    0.2450898    0.0000000
 24   C3 s         -0.0000000    0.0000000    0.0628823    1.7749602    0.0000000
 25   C3 px         2.0606746    1.0896662   -0.0000000    0.0000000    0.2994464
 26   C3 py         0.0000000   -0.0000000    1.1716038    0.2152384    0.0000000
 27   C3 pz         0.0000000    0.0000000   -0.0825272   -0.0641716    0.0000000
 28   H4 s          0.2064514   -0.4108952   -0.5191965    0.2776672    0.2550633
 29   H4 s         -1.1433328    0.9432594    0.7898136   -0.6746456   -0.0851607
 30   H5 s         -0.2064514    0.4108952   -0.5191965    0.2776672   -0.2550633
 31   H5 s          1.1433328   -0.9432594    0.7898136   -0.6746456    0.0851607
 32   H6 s          0.2064504    0.4108963    0.5191900    0.2776699   -0.2550508
 33   H6 s         -1.1433206   -0.9432704   -0.7898077   -0.6746576    0.0851598
 34   H7 s         -0.2064504   -0.4108963    0.5191900    0.2776699    0.2550508
 35   H7 s          1.1433206    0.9432704   -0.7898077   -0.6746576   -0.0851598

            Ene     1.1377553    1.1720862    1.2094519    1.2655827    1.3730293
            Sym             A            A            A            A            A
            Occ             0            0            0            0            0


                           31           32           33           34           35

 1    O1 s         -0.0000000   -0.0000018    0.0302244   -0.0000005    0.0238447
 2    O1 s          0.0000000    0.0000157   -0.3935232    0.0000185   -1.8185903
 3    O1 px         0.0000086   -0.0000000   -0.0000000   -0.0000000   -0.0000000
 4    O1 py         0.0000000    0.8130199    0.0000340    0.5103017    0.0000072
 5    O1 pz         0.0000000    0.0000287   -0.7017049   -0.0000130    0.3849553
 6    O1 s         -0.0000000   -0.0000366    0.8014495    0.0000162    3.2853407
 7    O1 px         0.0000035    0.0000000    0.0000000    0.0000000    0.0000000
 8    O1 py        -0.0000000   -0.9681646   -0.0000321   -1.6236956   -0.0000490
 9    O1 pz        -0.0000000   -0.0000357    0.8076261    0.0000223   -1.4984419
 10   C2 s         -0.0000000   -0.0303380    0.0492129    0.1198645    0.0270613
 11   C2 s         -0.0000000   -0.9580063    1.1153624    1.5116929   -0.0111004
 12   C2 px         0.1494704   -0.0000000   -0.0000000    0.0000000    0.0000000
 13   C2 py         0.0000000    0.0499846    0.0070268   -0.0041743   -0.0945827
 14   C2 pz         0.0000000    0.0562056    0.0781869   -0.0237992   -0.3341525
 15   C2 s          0.0000000    2.0230982   -1.4917099   -5.1859941   -1.0598491
 16   C2 px        -1.9378093    0.0000000   -0.0000000   -0.0000000   -0.0000000
 17   C2 py         0.0000000    0.4655763    0.1709548   -1.4764259   -0.2124714
 18   C2 pz        -0.0000000   -0.4297867   -0.1380786   -0.5345084   -0.5106665
 19   C3 s          0.0000000    0.0303315    0.0492153   -0.1198628    0.0270598
 20   C3 s          0.0000000    0.9578752    1.1154906   -1.5116570   -0.0111375
 21   C3 px        -0.1494618    0.0000000    0.0000000   -0.0000000    0.0000000
 22   C3 py         0.0000000    0.0499794   -0.0070311   -0.0041791    0.0945786
 23   C3 pz        -0.0000000   -0.0562077    0.0781888    0.0238038   -0.3341507
 24   C3 s         -0.0000000   -2.0229233   -1.4920038    5.1859241   -1.0596234
 25   C3 px         1.9377888   -0.0000000   -0.0000000    0.0000000    0.0000000
 26   C3 py         0.0000000    0.4656056   -0.1708747   -1.4764325    0.2123922
 27   C3 pz         0.0000000    0.4297840   -0.1380352    0.5345359   -0.5106190
 28   H4 s         -0.7370069    0.0432715   -0.0053899    0.3826870    0.1461019
 29   H4 s         -0.3129976   -0.3987715    0.4398683    0.2781595    0.0147016
 30   H5 s          0.7370069    0.0432715   -0.0053899    0.3826870    0.1461019
 31   H5 s          0.3129976   -0.3987715    0.4398683    0.2781595    0.0147016
 32   H6 s         -0.7370052   -0.0432707   -0.0053921   -0.3826817    0.1460860
 33   H6 s         -0.3129865    0.3987177    0.4399135   -0.2781427    0.0146975
 34   H7 s          0.7370052   -0.0432707   -0.0053921   -0.3826817    0.1460860
 35   H7 s          0.3129865    0.3987177    0.4399135   -0.2781427    0.0146975

            Ene     1.3878285    1.4279087    1.4578784    1.7903018    2.1561917
            Sym             A            A            A            A            A
            Occ             0            0            0            0            0



*** tstop() called on n2d037861.cns.vt.edu at Sat Oct 31 20:14:53 2020
Module time:
	user time   =       0.62 seconds =       0.01 minutes
	system time =       0.02 seconds =       0.00 minutes
	total time  =          1 seconds =       0.02 minutes
Total time:
	user time   =       0.62 seconds =       0.01 minutes
	system time =       0.02 seconds =       0.00 minutes
	total time  =          1 seconds =       0.02 minutes
 MINTS: Wrapper to libmints.
   by Justin Turney

   Calculation information:
      Number of threads:                 1
      Number of atoms:                   7
      Number of AO shells:              23
      Number of SO shells:              23
      Number of primitives:             52
      Number of atomic orbitals:        35
      Number of basis functions:        35

      Number of irreps:                  1
      Integral cutoff                 0.00e+00
      Number of functions per irrep: [  35 ]

 OEINTS: Overlap, kinetic, potential, dipole, and quadrupole integrals
         stored in file 35.

      Computing two-electron integrals...done
      Computed 165402 non-zero two-electron integrals.
        Stored in file 33.


Reading options from the VCD block
Calling plugin vcd.so.


	*************************
	*                       *
	*          VCD          *
	*                       *
	*************************

	Wave function  = SCF
	Dertype        = FIRST
	Presorting SO-basis two-electron integrals.
	Sorting File: SO Ints (nn|nn) nbuckets = 1
	Constructing frozen core operators
	Starting first half-transformation.
	Sorting half-transformed integrals.
	First half integral transformation complete.
	Starting second half-transformation.
	Two-electron integral transformation complete.

	Reference Wfn Parameters:
	---------------------------
	Number of irreps        = 1
	Number of MOs           = 35
	Number of active MOs    = 35
	Number of active occ    = 12
	Number of active vir    = 23
	Number of frozen occ    = 0
	Number of frozen vir    = 0

	Number of atoms         = 7
	RHF one-electron energy     =    -356.628526299768
	RHF two-electron energy     =     128.634519998107
	RHF total electronic energy =    -227.994006301661
	RHF total energy            =    -152.624952916817
  ## Nuclear Repulsion Energy 1st Derivatives (Symmetry 0) ##
  Irrep: 1 Size: 7 x 3

                 1                   2                   3

    1     0.00000000000000    -0.00013774104363   -12.67078791104711
    2     0.00000000000000     7.32891883456315     5.04726340885114
    3     0.00000000000000    -7.32881658158878     5.04725468694175
    4     1.67474876347260     1.36712599495097     0.64405385535441
    5    -1.67474876347260     1.36712599495097     0.64405385535441
    6    -1.67474262181064    -1.36710825091634     0.64408105227270
    7     1.67474262181064    -1.36710825091634     0.64408105227270



  ## Core Hamiltonian Gradient (Symmetry 0) ##
  Irrep: 1 Size: 7 x 3

                 1                   2                   3

    1     0.00000000000010     0.00011463011384    22.54045482185513
    2    -0.00000000000040   -11.67915236677456    -8.36176581367585
    3    -0.00000000000000    11.67909827476173    -8.36183133028608
    4    -4.56303716696924    -3.17833417311857    -1.45416310539943
    5     4.56303716696951    -3.17833417311857    -1.45416310539949
    6     4.56302621403917     3.17830390406834    -1.45426573354741
    7    -4.56302621403914     3.17830390406832    -1.45426573354735



  ## Overlap Gradient (Symmetry 0) ##
  Irrep: 1 Size: 7 x 3

                 1                   2                   3

    1    -0.00000000000001    -0.00000192922003    -0.28220415193483
    2     0.00000000000005     0.01823007975032     0.06268601872251
    3    -0.00000000000001    -0.01822888023019     0.06267766675168
    4     0.19606915756691     0.10083111845636     0.03920776754518
    5    -0.19606915756695     0.10083111845637     0.03920776754519
    6    -0.19606954081150    -0.10083075360642     0.03921246568514
    7     0.19606954081151    -0.10083075360642     0.03921246568514



  ## Coulomb Gradient (Symmetry 0) ##
  Irrep: 1 Size: 7 x 3

                 1                   2                   3

    1    -0.00000000000010     0.00002283974873    -9.84504711699316
    2     0.00000000000037     4.27821525611959     3.26642363240194
    3     0.00000000000002    -4.27826462107567     3.26649839119985
    4     2.95827312426342     1.85519543536970     0.82799335332184
    5    -2.95827312426369     1.85519543536969     0.82799335332189
    6    -2.95826826057661    -1.85518217276603     0.82806919337385
    7     2.95826826057658    -1.85518217276601     0.82806919337379



  ## Exchange Gradient (Symmetry 0) ##
  Irrep: 1 Size: 7 x 3

                 1                   2                   3

    1     0.00000000000001    -0.00000451447705     0.22967513316766
    2    -0.00000000000003     0.07006123331489     0.00194763343662
    3    -0.00000000000000    -0.07005542877351     0.00195051404754
    4    -0.27777074059633    -0.14841575688886    -0.05838982172049
    5     0.27777074059635    -0.14841575688886    -0.05838982172050
    6     0.27777101482691     0.14841511185670    -0.05839681860542
    7    -0.27777101482691     0.14841511185670    -0.05839681860542



  ## RHF Gradient (Symmetry 0) ##
  Irrep: 1 Size: 7 x 3

                 1                   2                   3

    1     0.00000000000000    -0.00000671487814    -0.02790922495230
    2     0.00000000000000     0.01627303697339     0.01655487973636
    3     0.00000000000000    -0.01626723690642     0.01654992865475
    4    -0.01171686226263    -0.00359738123040    -0.00129795089850
    5     0.01171686226263    -0.00359738123040    -0.00129795089850
    6     0.01171680566733     0.00359783863624    -0.00129984082114
    7    -0.01171680566733     0.00359783863624    -0.00129984082114



  ## CPHF Coefficients for R(0, 0) (Symmetry 0) ##
  Irrep: 1 Size: 23 x 12

                 1                   2                   3                   4                   5

    1    -0.00000000000000    -0.00000000000000    -0.00000000000000     0.00000000000000     0.00000000000000
    2    -0.00000000000000    -0.00000000000000     0.00000000000000     0.00000000000001     0.00000000000000
    3    -0.00075732112716     0.00003091142189    -0.00000002030464     0.02277762254450     0.00353133715099
    4    -0.00000000000000    -0.00000000000000     0.00000000000000    -0.00000000000000    -0.00000000000000
    5    -0.00000000000000    -0.00000000000000    -0.00000000000000     0.00000000000000     0.00000000000000
    6    -0.00000001889315     0.00000019533537     0.00024712473816    -0.00000089598352    -0.00000047842651
    7    -0.00000000000000    -0.00000000000000    -0.00000000000000    -0.00000000000000    -0.00000000000000
    8     0.00000000000000     0.00000000000000    -0.00000000000000     0.00000000000000     0.00000000000000
    9     0.00000000000000    -0.00000000000000     0.00000000000000     0.00000000000000     0.00000000000000
   10    -0.00337379534231     0.00049646779861    -0.00000041523738    -0.01604113469896    -0.01547729407349
   11    -0.00000000000000     0.00000000000000    -0.00000000000000    -0.00000000000002    -0.00000000000002
   12    -0.00000000000000    -0.00000000000000     0.00000000000000     0.00000000000000     0.00000000000000
   13    -0.00000000000000    -0.00000000000000     0.00000000000000    -0.00000000000000    -0.00000000000000
   14    -0.00000002395013    -0.00000042996174    -0.00057572632370    -0.00000092789010    -0.00000050166659
   15    -0.00040561943030    -0.00023972165033     0.00000018049654     0.02059819213503     0.00440798531740
   16     0.00000000000000    -0.00000000000000     0.00000000000000     0.00000000000000     0.00000000000000
   17     0.00000000000000    -0.00000000000000     0.00000000000000    -0.00000000000000     0.00000000000000
   18    -0.00272010845557     0.00028107860924    -0.00000025653149    -0.00398266176208    -0.01517406302291
   19    -0.00000005718277    -0.00000076373331    -0.00100654597880    -0.00000012409145    -0.00000029870490
   20     0.00000000000000     0.00000000000000     0.00000000000000     0.00000000000000     0.00000000000000
   21     0.00000000000000     0.00000000000000     0.00000000000000     0.00000000000000     0.00000000000000
   22     0.00000000000000     0.00000000000000    -0.00000000000000     0.00000000000000     0.00000000000000
   23     0.00000000000000     0.00000000000000    -0.00000000000000     0.00000000000000     0.00000000000000

                 6                   7                   8                   9                  10

    1    -0.00000000000000    -0.00764705453151    -0.00000000000001     0.00000046769310    -0.00000000000000
    2    -0.00000000000000     0.00000607741179    -0.00000000000001    -0.04171169032083    -0.00000000000001
    3     0.00000019643034    -0.00000000000002    -0.02797429715544     0.00000000000002     0.00000288632807
    4     0.00000000000000    -0.12959069162294     0.00000000000000     0.00009830319485     0.00000000000001
    5     0.00000000000000    -0.00042732246392    -0.00000000000000    -0.03101290028409     0.00000000000002
    6    -0.01527799414280    -0.00000000000002     0.00000058892676     0.00000000000001    -0.04364223430767
    7    -0.00000000000001    -0.00000210145751     0.00000000000000    -0.01842588526526    -0.00000000000002
    8    -0.00000000000000    -0.04599360557951    -0.00000000000000    -0.00000138104163     0.00000000000000
    9     0.00000000000000     0.00000599413582    -0.00000000000000    -0.00519522896631     0.00000000000000
   10     0.00000051449106     0.00000000000006     0.00581905932951    -0.00000000000000    -0.00000070440123
   11    -0.00000000000000    -0.05979429460020     0.00000000000001    -0.00000247358396     0.00000000000000
   12     0.00000000000000    -0.00000204482386    -0.00000000000000    -0.00382475480372     0.00000000000000
   13     0.00000000000000     0.02209562900638     0.00000000000000     0.00000045180591     0.00000000000000
   14    -0.00906402009927    -0.00000000000000     0.00000051739012    -0.00000000000001    -0.02634087017840
   15     0.00000018028893     0.00000000000000    -0.01638518451886     0.00000000000000     0.00000180337042
   16     0.00000000000000    -0.00000024099071    -0.00000000000000    -0.00441986028203     0.00000000000001
   17     0.00000000000000     0.01336936232372     0.00000000000000     0.00000047483362    -0.00000000000000
   18     0.00000080928586     0.00000000000000    -0.00329251982566    -0.00000000000000     0.00000051770851
   19     0.00518117404969    -0.00000000000000    -0.00000000298331    -0.00000000000001     0.00642792310793
   20    -0.00000000000000    -0.00000058677696    -0.00000000000000    -0.02048091292304     0.00000000000000
   21     0.00000000000000     0.00783877209339     0.00000000000000    -0.00000083328165     0.00000000000000
   22    -0.00000000000000     0.00000005288017    -0.00000000000000    -0.01209352665035     0.00000000000000
   23    -0.00000000000000    -0.02250887469737    -0.00000000000000    -0.00000043915370     0.00000000000000

                11                  12

    1    -0.04251829819084    -0.00000000000007
    2     0.00000638763165    -0.00000000000002
    3     0.00000000000007    -0.05709325742429
    4    -0.11324131879507    -0.00000000000016
    5    -0.00037287134401    -0.00000000000001
    6    -0.00000000000001    -0.00000053942963
    7    -0.00000124161586     0.00000000000000
    8    -0.06610876290642    -0.00000000000010
    9     0.00000686488188    -0.00000000000000
   10     0.00000000000005     0.02061840318489
   11    -0.07459981614557    -0.00000000000009
   12    -0.00000242723212    -0.00000000000000
   13     0.02740426628281     0.00000000000004
   14    -0.00000000000000    -0.00000011742992
   15     0.00000000000005    -0.02994776590181
   16     0.00000015501662    -0.00000000000000
   17     0.00992737354553     0.00000000000001
   18    -0.00000000000001     0.00827920829618
   19     0.00000000000000     0.00000047081220
   20     0.00000128688907     0.00000000000000
   21    -0.00870399292353    -0.00000000000001
   22    -0.00000005208229     0.00000000000000
   23     0.00612906682315     0.00000000000001



  ## CPHF Coefficients for R(0, 1) (Symmetry 0) ##
  Irrep: 1 Size: 23 x 12

                 1                   2                   3                   4                   5

    1     0.00000003528699    -0.00000016532669    -0.00021512283821    -0.00000062054713     0.00000030146824
    2    -0.00162449340892     0.00009740033093    -0.00000009871150     0.01059721581822    -0.00680537811770
    3     0.00000000000000    -0.00000000000000    -0.00000000000000    -0.00000000000001     0.00000000000000
    4     0.00000697437475     0.00000127981083     0.00016337826416    -0.00009649887271     0.00000391930489
    5    -0.00213990104696    -0.00034915702630     0.00000080919477     0.02849811910053    -0.00187426148349
    6     0.00000000000000    -0.00000000000000    -0.00000000000000    -0.00000000000001     0.00000000000001
    7    -0.00090733660522    -0.00038748537856     0.00000035168199     0.03811022136826    -0.00277631922573
    8    -0.00000002378007    -0.00000009550090    -0.00012258856520    -0.00000103465953    -0.00000091259753
    9     0.00119948723117    -0.00103775697245     0.00000067509274     0.06562271628116     0.01825906193614
   10    -0.00000000000000    -0.00000000000000    -0.00000000000000     0.00000000000000     0.00000000000000
   11     0.00000025048080     0.00000073387435     0.00119650953421     0.00001022865837     0.00000295621836
   12    -0.00168363248214    -0.00003576351641     0.00000004456827    -0.00343576717163    -0.01082163111385
   13    -0.00000003815351    -0.00000058363632    -0.00076480225659    -0.00000005705037    -0.00000003409174
   14    -0.00000000000000     0.00000000000000     0.00000000000000    -0.00000000000001    -0.00000000000000
   15     0.00000000000000     0.00000000000000     0.00000000000000     0.00000000000000     0.00000000000000
   16    -0.00114128782478    -0.00001537397705     0.00000000234622    -0.01053033661979    -0.00438701744425
   17    -0.00000000188375    -0.00000044703853    -0.00058594462468     0.00000022778424     0.00000028396306
   18     0.00000000000000     0.00000000000000     0.00000000000000     0.00000000000000     0.00000000000000
   19    -0.00000000000000     0.00000000000000     0.00000000000000    -0.00000000000001    -0.00000000000001
   20    -0.00090664806598     0.00017515845657    -0.00000017927859    -0.01901873661281    -0.01125942584932
   21    -0.00000002311538     0.00000007412507     0.00008079439062    -0.00000034091077    -0.00000003868177
   22     0.00127312298064    -0.00074045328082     0.00000052291303     0.01398598893817     0.00741286391326
   23     0.00000008842470     0.00000132143750     0.00177893340783    -0.00000075767493    -0.00000056023081

                 6                   7                   8                   9                  10

    1     0.00657310329334    -0.00000000000000     0.00000223986720     0.00000000000000     0.03655300394081
    2     0.00000497211080    -0.00000000000001    -0.04038189665590    -0.00000000000000     0.00000863198769
    3    -0.00000000000001     0.00000016820132     0.00000000000002    -0.00427026696407    -0.00000000000003
    4    -0.08708180643365     0.00000000000000     0.00022079806039    -0.00000000000002    -0.14961227708821
    5    -0.00028633897595     0.00000000000001    -0.06637890025719    -0.00000000000000    -0.00048987576558
    6    -0.00000000000001    -0.02216109358655     0.00000000000003    -0.00000095908540    -0.00000000000002
    7    -0.00000211795012    -0.00000000000001    -0.06773547001386     0.00000000000000    -0.00000233811297
    8    -0.02462877781538     0.00000000000000     0.00000045787817    -0.00000000000001    -0.04731207075664
    9     0.00000105246267     0.00000000000000    -0.06418229972206     0.00000000000000     0.00000171054127
   10     0.00000000000002    -0.00000068096579    -0.00000000000000    -0.00738442956495     0.00000000000000
   11    -0.01861632198693     0.00000000000000    -0.00000935347930    -0.00000000000001    -0.00215971660982
   12    -0.00000097304695     0.00000000000000    -0.01605970271615    -0.00000000000000    -0.00000234875262
   13     0.00740464077642    -0.00000000000000    -0.00000010176998     0.00000000000000     0.01194021402510
   14     0.00000000000000    -0.01270100255322     0.00000000000000    -0.00000054892107     0.00000000000000
   15    -0.00000000000000     0.00000028657359    -0.00000000000000    -0.00435914743325     0.00000000000000
   16     0.00000034344448     0.00000000000000     0.00474848749429    -0.00000000000000     0.00000009914562
   17     0.00953444703709    -0.00000000000000     0.00000000050966     0.00000000000000     0.01150687691164
   18     0.00000000000000    -0.00000074349264    -0.00000000000000    -0.02458972414313     0.00000000000000
   19    -0.00000000000000     0.00654798926261     0.00000000000000    -0.00000012746915    -0.00000000000000
   20    -0.00000072145896    -0.00000000000000    -0.00363514242670    -0.00000000000000    -0.00000332394045
   21     0.01996342658082     0.00000000000000    -0.00000017447305     0.00000000000001     0.03876960538043
   22     0.00000058838387     0.00000000000000    -0.01875076973464     0.00000000000000     0.00000158020799
   23    -0.03917191498477     0.00000000000000    -0.00000019543672    -0.00000000000000    -0.05459013610512

                11                  12

    1    -0.00000000000000     0.00000117341591
    2    -0.00000000000008     0.04579745126028
    3     0.00000083761001    -0.00000000000002
    4     0.00000000000001     0.00000538361325
    5     0.00000000000002    -0.00136325164407
    6    -0.04760102321218    -0.00000000000006
    7     0.00000000000005    -0.04900730112417
    8     0.00000000000000    -0.00000037939332
    9     0.00000000000011    -0.07639228663556
   10    -0.00000069670745    -0.00000000000000
   11    -0.00000000000000    -0.00001135853441
   12    -0.00000000000000     0.00568527917827
   13     0.00000000000000     0.00000040899382
   14    -0.03278877612583    -0.00000000000004
   15     0.00000073446344    -0.00000000000000
   16    -0.00000000000003     0.02667760729532
   17    -0.00000000000000    -0.00000018444053
   18     0.00000054193034     0.00000000000000
   19    -0.00189390477071     0.00000000000002
   20    -0.00000000000008     0.05646463164164
   21     0.00000000000000     0.00000355681825
   22    -0.00000000000001     0.00453311043622
   23    -0.00000000000000    -0.00000079396888



  ## CPHF Coefficients for R(0, 2) (Symmetry 0) ##
  Irrep: 1 Size: 23 x 12

                 1                   2                   3                   4                   5

    1    -0.00048729853830    -0.00022993988714     0.00000017107517    -0.00642345744279     0.01320502792954
    2     0.00000009408483     0.00000019628177     0.00006476520957     0.00000242442817    -0.00000503277923
    3    -0.00000000000000    -0.00000000000000     0.00000000000000    -0.00000000000001     0.00000000000001
    4    -0.00109758538492    -0.00291513780469     0.00000224726309    -0.05272006702145     0.09398722860197
    5    -0.00000362657318    -0.00000962179910     0.00000235359429    -0.00017424177824     0.00030904391060
    6    -0.00000000000000    -0.00000000000000    -0.00000000000000    -0.00000000000001     0.00000000000001
    7    -0.00000004563400     0.00000033272967     0.00054102206681    -0.00000083416259     0.00000145173942
    8     0.00131857035590    -0.00118851462186     0.00000093967172     0.03034030094381     0.03966972507862
    9     0.00000006669052     0.00000063702580     0.00064993991643     0.00000113457714    -0.00000437367428
   10    -0.00000000000000     0.00000000000000     0.00000000000000    -0.00000000000000    -0.00000000000005
   11     0.00001772591071    -0.00166121562288     0.00000138794605     0.00167398778440     0.05223480951806
   12     0.00000003274775     0.00000067067440     0.00096505318522     0.00000103276108     0.00000147245196
   13     0.00020288427223     0.00053320971700    -0.00000039371640    -0.02852241076295    -0.01642008548048
   14    -0.00000000000000     0.00000000000000    -0.00000000000000     0.00000000000000    -0.00000000000000
   15     0.00000000000000     0.00000000000000    -0.00000000000000    -0.00000000000000    -0.00000000000000
   16     0.00000000257282    -0.00000013515369    -0.00017661520355    -0.00000085569981    -0.00000041331240
   17     0.00104689868725    -0.00034637620414     0.00000027861328     0.01560661535661    -0.00344763087079
   18     0.00000000000000    -0.00000000000000    -0.00000000000000     0.00000000000000     0.00000000000000
   19    -0.00000000000000     0.00000000000000     0.00000000000000    -0.00000000000000    -0.00000000000000
   20    -0.00000000169497     0.00000088974061     0.00112123981617    -0.00000286216821    -0.00000137269182
   21     0.00042211398652    -0.00059958995236     0.00000053288652     0.04227686474791     0.00716955822593
   22    -0.00000000110733     0.00000080826606     0.00106303309858     0.00000100487112    -0.00000033497018
   23     0.00442754527382     0.00041977942265    -0.00000022099988    -0.02506327159206     0.02885854398437

                 6                   7                   8                   9                  10

    1     0.00000008790089     0.00000000000000     0.01461184636155    -0.00000000000000    -0.00000066356842
    2    -0.01289523316586     0.00000000000001    -0.00000972409312    -0.00000000000001    -0.03390772899781
    3     0.00000000000001     0.02022000890895     0.00000000000002     0.00000128149386     0.00000000000001
    4     0.00003408751569    -0.00000000000000     0.19114056840923    -0.00000000000000    -0.00007746385051
    5    -0.01129896229537     0.00000000000000     0.00063000752763     0.00000000000000     0.02148801743061
    6    -0.00000000000001    -0.00000089425304     0.00000000000003    -0.00821352944708    -0.00000000000002
    7     0.02180060463631    -0.00000000000000     0.00000221080638     0.00000000000000     0.07475577627569
    8    -0.00000162462986    -0.00000000000000     0.00784838015757     0.00000000000000     0.00000002344700
    9     0.04656248520530     0.00000000000000    -0.00000762044774     0.00000000000002     0.14102060116576
   10     0.00000000000000    -0.01698266612298    -0.00000000000007    -0.00000105614798     0.00000000000001
   11     0.00000582135406    -0.00000000000002     0.06668029313295    -0.00000000000000     0.00002126368562
   12    -0.00074623013172     0.00000000000000     0.00000015919179    -0.00000000000000    -0.00126390285851
   13     0.00000020508894    -0.00000000000000     0.01183521102524    -0.00000000000000    -0.00000180132246
   14    -0.00000000000001    -0.00000085887067    -0.00000000000000    -0.00300315538863    -0.00000000000002
   15     0.00000000000000     0.01318675581261     0.00000000000000     0.00000102822823     0.00000000000000
   16    -0.01952401334753     0.00000000000000     0.00000081858259    -0.00000000000000    -0.03260679645715
   17    -0.00000024422408     0.00000000000000    -0.02386572728449     0.00000000000000     0.00000011884214
   18    -0.00000000000000    -0.03028646971018    -0.00000000000000    -0.00000035036632    -0.00000000000000
   19    -0.00000000000002    -0.00000032978868     0.00000000000000     0.00860362115392    -0.00000000000003
   20    -0.04019325449436     0.00000000000000     0.00000198035383    -0.00000000000001    -0.06651130332370
   21    -0.00000242840332     0.00000000000000    -0.04585833475277     0.00000000000000    -0.00000249088575
   22    -0.00251662468565     0.00000000000000    -0.00000107495462     0.00000000000001     0.01921915480317
   23    -0.00000135324640    -0.00000000000000     0.04496719942146     0.00000000000000    -0.00000172808944

                11                  12

    1     0.00000000000001     0.00376657425049
    2     0.00000000000003    -0.00000131624475
    3     0.08835211644599     0.00000000000013
    4    -0.00000000000006     0.03555463143285
    5     0.00000000000001     0.00012084845425
    6    -0.00000156749642     0.00000000000000
    7    -0.00000000000001     0.00000551686643
    8     0.00000000000008    -0.05204292993736
    9     0.00000000000000     0.00000569162232
   10    -0.02888277193777    -0.00000000000004
   11    -0.00000000000003     0.00037666299054
   12     0.00000000000000    -0.00000086263331
   13    -0.00000000000006     0.04149378752916
   14    -0.00000165615345    -0.00000000000000
   15     0.05316086424781     0.00000000000008
   16     0.00000000000001    -0.00000059986355
   17    -0.00000000000000    -0.00068188966391
   18     0.00831219428539     0.00000000000001
   19    -0.00000054357016     0.00000000000000
   20    -0.00000000000000    -0.00000069661023
   21     0.00000000000003    -0.02173165185237
   22    -0.00000000000000     0.00000054419861
   23    -0.00000000000002     0.01471418209149



  ## CPHF Coefficients for R(1, 0) (Symmetry 0) ##
  Irrep: 1 Size: 23 x 12

                 1                   2                   3                   4                   5

    1    -0.00000000000000     0.00000000000000     0.00000000000000    -0.00000000000000    -0.00000000000001
    2     0.00000000000000     0.00000000000000    -0.00000000000000     0.00000000000000    -0.00000000000001
    3     0.00028115824343     0.00099913697532    -0.00122193523383    -0.00772720232556    -0.01170240159131
    4     0.00000000000000     0.00000000000000    -0.00000000000000    -0.00000000000000     0.00000000000000
    5    -0.00000000000000     0.00000000000000     0.00000000000000    -0.00000000000000    -0.00000000000000
    6    -0.00011494551392    -0.00018242214158     0.00087681557937     0.01514664164356    -0.00804297589612
    7     0.00000000000000     0.00000000000000    -0.00000000000000     0.00000000000001    -0.00000000000000
    8    -0.00000000000000    -0.00000000000000     0.00000000000000    -0.00000000000000    -0.00000000000000
    9    -0.00000000000000     0.00000000000000    -0.00000000000000    -0.00000000000000    -0.00000000000000
   10     0.00188394877497    -0.00132916592894     0.00611065210686     0.00006685800138     0.04461490260449
   11     0.00000000000000    -0.00000000000000     0.00000000000001    -0.00000000000000     0.00000000000004
   12    -0.00000000000000    -0.00000000000000     0.00000000000000    -0.00000000000000    -0.00000000000000
   13    -0.00000000000000    -0.00000000000000     0.00000000000000     0.00000000000000    -0.00000000000000
   14     0.00039491601768     0.00051088607486    -0.00036843900244     0.02057700426760    -0.00810812602654
   15     0.00002995542704    -0.00122872145146    -0.00026725419163    -0.01304115141159     0.00249230409324
   16     0.00000000000000    -0.00000000000000    -0.00000000000000    -0.00000000000001     0.00000000000000
   17    -0.00000000000000     0.00000000000000     0.00000000000000     0.00000000000000    -0.00000000000000
   18     0.00137824710680     0.00046922751926     0.00030849871235     0.00462955715963     0.00058152892385
   19     0.00088224231079    -0.00205713940707     0.00203821568287    -0.00786534708164     0.03719625390773
   20    -0.00000000000000     0.00000000000000    -0.00000000000000     0.00000000000000    -0.00000000000002
   21     0.00000000000000    -0.00000000000000    -0.00000000000000    -0.00000000000000     0.00000000000000
   22    -0.00000000000000    -0.00000000000000     0.00000000000000    -0.00000000000000     0.00000000000000
   23    -0.00000000000000    -0.00000000000000     0.00000000000000    -0.00000000000000    -0.00000000000000

                 6                   7                   8                   9                  10

    1     0.00000000000000     0.05237766612829     0.00000000000000     0.08793999987513    -0.00000000000001
    2    -0.00000000000001    -0.03099346574979    -0.00000000000002    -0.02284574211428     0.00000000000000
    3     0.00046765600216     0.00000000000000     0.02060787494281    -0.00000000000002    -0.03101176605640
    4    -0.00000000000000     0.06068437322778     0.00000000000001    -0.00425114716399    -0.00000000000000
    5     0.00000000000001     0.05530223779175     0.00000000000002     0.07300186578918    -0.00000000000002
    6    -0.01536671382423     0.00000000000001    -0.07490100125387     0.00000000000002     0.03823066830432
    7    -0.00000000000002     0.05243322152681    -0.00000000000005     0.01257462023138     0.00000000000002
    8     0.00000000000000    -0.00763512175611     0.00000000000000    -0.06722006500002     0.00000000000001
    9     0.00000000000001     0.01483485522005     0.00000000000001    -0.02783503764407    -0.00000000000000
   10    -0.07608715055276    -0.00000000000002    -0.04794999240922     0.00000000000000     0.01548242300755
   11    -0.00000000000008     0.02359987838142    -0.00000000000005     0.00923240318744     0.00000000000001
   12     0.00000000000000     0.02012092840160     0.00000000000000    -0.03826850053255     0.00000000000000
   13     0.00000000000000    -0.02969371107537     0.00000000000000    -0.03184324904176     0.00000000000000
   14    -0.00225513610409    -0.00000000000001    -0.04015797305510    -0.00000000000001     0.01807339648635
   15    -0.00580604870553    -0.00000000000000     0.00376856100336    -0.00000000000001    -0.00161399794960
   16     0.00000000000000    -0.00506921613572     0.00000000000001     0.01132016747850    -0.00000000000001
   17     0.00000000000000    -0.02188448477273    -0.00000000000000    -0.02320308546860     0.00000000000000
   18     0.00291906073528     0.00000000000000     0.00987031475479     0.00000000000000    -0.01713523942599
   19    -0.04218708446660    -0.00000000000001    -0.02512072202117    -0.00000000000001     0.02245356275320
   20     0.00000000000002    -0.01116894841019     0.00000000000001    -0.01100609278576    -0.00000000000001
   21    -0.00000000000000     0.01109661110479    -0.00000000000000     0.01674673752140    -0.00000000000000
   22    -0.00000000000000     0.03689037762761    -0.00000000000000     0.03624374002451    -0.00000000000000
   23     0.00000000000000     0.01469353204631     0.00000000000000     0.01992842466932    -0.00000000000000

                11                  12

    1    -0.02427382115715    -0.00000000000003
    2     0.08039581901898     0.00000000000014
    3    -0.00000000000005     0.02551365556892
    4     0.06165622623220     0.00000000000008
    5     0.04309565734303     0.00000000000006
    6    -0.00000000000010     0.04141977439492
    7     0.04845065720409     0.00000000000009
    8     0.06725275608855     0.00000000000010
    9     0.07253207258712     0.00000000000010
   10    -0.00000000000006     0.01045055266693
   11     0.04378391104910     0.00000000000007
   12     0.03467153814827     0.00000000000005
   13     0.00900612890620     0.00000000000001
   14    -0.00000000000002     0.01724622378536
   15    -0.00000000000003     0.01784404905866
   16    -0.00635236155324    -0.00000000000001
   17     0.01221558559798     0.00000000000002
   18     0.00000000000001    -0.00859661756383
   19    -0.00000000000000     0.00913001456186
   20     0.01727402970945     0.00000000000002
   21    -0.01285766619550    -0.00000000000002
   22    -0.01678042003726    -0.00000000000002
   23    -0.00422395444148    -0.00000000000001



  ## CPHF Coefficients for R(1, 1) (Symmetry 0) ##
  Irrep: 1 Size: 23 x 12

                 1                   2                   3                   4                   5

    1     0.00041987034390     0.00091496034766    -0.00022425904497    -0.00367036155824     0.00198023555308
    2     0.00104479194748    -0.00096930125029     0.00056829592852    -0.00616966735972     0.01587437146886
    3    -0.00000000000000     0.00000000000000     0.00000000000000     0.00000000000000    -0.00000000000000
    4     0.00030346940675     0.00047368420991    -0.00030761813267    -0.01172653442960     0.03516921317352
    5     0.00103237329325     0.00096923524505    -0.00097082989257    -0.01411354247634     0.00071098252093
    6     0.00000000000000     0.00000000000000    -0.00000000000000     0.00000000000000     0.00000000000001
    7     0.00017456606471     0.00037323396657    -0.00029768722491    -0.01588128816392    -0.01368887956000
    8     0.00024369223302    -0.00135029140268     0.00149623061483    -0.03434007779503     0.06241481567265
    9    -0.00058322294830     0.00035812146077    -0.00094417931730    -0.03561445627992    -0.00173140375416
   10    -0.00000000000000    -0.00000000000000     0.00000000000000     0.00000000000001     0.00000000000003
   11    -0.00024223480838     0.00150834113056    -0.00134513079568    -0.01592149330983    -0.02742730698310
   12     0.00081525026611    -0.00070699310706    -0.00060097659773    -0.00142351737241     0.01062346477339
   13     0.00056212834705     0.00008178486730     0.00013569593263     0.02033046895106    -0.00973032377316
   14     0.00000000000000    -0.00000000000000     0.00000000000000     0.00000000000000     0.00000000000001
   15     0.00000000000000     0.00000000000000    -0.00000000000000     0.00000000000000    -0.00000000000000
   16     0.00031339121227    -0.00062127004699     0.00282685344650    -0.00007618025657     0.01653009969203
   17     0.00046644304492     0.00071498397223    -0.00049692901868     0.00615562513086    -0.01662955833027
   18     0.00000000000000     0.00000000000000    -0.00000000000000    -0.00000000000000     0.00000000000000
   19     0.00000000000000     0.00000000000000     0.00000000000000     0.00000000000001     0.00000000000001
   20     0.00041148459773     0.00054012445889     0.00227206606900     0.00988791597540     0.00692857031988
   21    -0.00016807921979    -0.00104176652084     0.00061027558457    -0.02328991036302     0.01627831259422
   22    -0.00044019487078     0.00016635215492    -0.00273472378256    -0.00419602519825    -0.01300545009735
   23    -0.00121732436239     0.00106319762938    -0.00106341079762     0.01261342193389    -0.01177213176899

                 6                   7                   8                   9                  10

    1     0.00382283277931    -0.00000000000000     0.02204562471559     0.00000000000000    -0.02321885722751
    2    -0.03003509201875    -0.00000000000001    -0.00110576627769    -0.00000000000000     0.02737474684788
    3     0.00000000000002    -0.01779019156749     0.00000000000001     0.06051331889723    -0.00000000000000
    4     0.04917646665423     0.00000000000001     0.07768251895418     0.00000000000001     0.07275950914575
    5     0.00250809543149     0.00000000000000     0.02895931719095     0.00000000000002    -0.00760515464651
    6    -0.00000000000001    -0.02409374745220    -0.00000000000001    -0.07259533567033     0.00000000000001
    7     0.04013072213529    -0.00000000000001     0.04698747861637    -0.00000000000003     0.00094950105757
    8     0.00082901952226     0.00000000000000     0.07522426919056     0.00000000000000     0.02837781735832
    9    -0.00556345791798     0.00000000000000     0.02959588002492     0.00000000000001     0.01698201731301
   10    -0.00000000000000    -0.01603218607365    -0.00000000000001    -0.03753365104896    -0.00000000000000
   11     0.00218662258396    -0.00000000000002     0.00791680909140    -0.00000000000004     0.00746024209505
   12     0.02799280654291     0.00000000000000     0.01699085769368     0.00000000000001     0.00615988320443
   13    -0.02347689317188     0.00000000000000    -0.05897736980311     0.00000000000000     0.00813743831969
   14    -0.00000000000001    -0.00455041372166    -0.00000000000000    -0.05080993857416     0.00000000000001
   15     0.00000000000000    -0.02398557477735    -0.00000000000000     0.01402259305697     0.00000000000000
   16    -0.02480570290355    -0.00000000000000    -0.00082750689927     0.00000000000002    -0.01306862758736
   17    -0.00470558840484    -0.00000000000000    -0.02423588778121    -0.00000000000000    -0.00281913159684
   18    -0.00000000000000     0.01567275564375     0.00000000000000     0.01447050330976    -0.00000000000000
   19    -0.00000000000001    -0.02347668832015    -0.00000000000001    -0.04192523381382     0.00000000000001
   20    -0.00907252280604     0.00000000000001    -0.00523926414687     0.00000000000003     0.01056430106052
   21    -0.00522633741494    -0.00000000000000     0.04315511075668    -0.00000000000000    -0.02516353697085
   22     0.02966518196069    -0.00000000000000     0.01934363303333    -0.00000000000002    -0.00392788455735
   23     0.02241113027017    -0.00000000000000    -0.00884077419526     0.00000000000000     0.02607655153396

                11                  12

    1     0.00000000000006    -0.04116319649230
    2     0.00000000000002    -0.00669053794375
    3    -0.01714359594131    -0.00000000000003
    4     0.00000000000015    -0.10789113992527
    5    -0.00000000000000    -0.00693418777707
    6     0.04651688963801     0.00000000000004
    7    -0.00000000000001     0.02439005562867
    8     0.00000000000010    -0.06951725707246
    9    -0.00000000000006     0.03355122084658
   10     0.04074601031514    -0.00000000000001
   11    -0.00000000000006     0.06914668541246
   12     0.00000000000002    -0.01666495182270
   13    -0.00000000000002     0.01497566119168
   14     0.03439666396529     0.00000000000004
   15    -0.01573299169202    -0.00000000000002
   16     0.00000000000003    -0.02581704772142
   17    -0.00000000000005     0.03884088550718
   18    -0.00791380117145    -0.00000000000001
   19     0.01923068317539     0.00000000000002
   20     0.00000000000002    -0.02357640214760
   21     0.00000000000002    -0.01421623499823
   22     0.00000000000001    -0.00389006761328
   23     0.00000000000003    -0.02194278683767



  ## CPHF Coefficients for R(1, 2) (Symmetry 0) ##
  Irrep: 1 Size: 23 x 12

                 1                   2                   3                   4                   5

    1    -0.00013366181053     0.00050974573558    -0.00047709808853     0.00115554404801    -0.01317730525489
    2    -0.00001972760239     0.00069234578399    -0.00074882624539     0.03058952021841    -0.03813561896254
    3    -0.00000000000000    -0.00000000000000    -0.00000000000000    -0.00000000000001     0.00000000000001
    4     0.00028113013743     0.00278797059419    -0.00542771370526     0.03255647704668    -0.05970482203989
    5     0.00027586673279     0.00099770199797    -0.00089789662012     0.01459877737248    -0.03823288273078
    6    -0.00000000000000     0.00000000000000    -0.00000000000000     0.00000000000001     0.00000000000001
    7     0.00169151700928     0.00027130241980    -0.00039973657918    -0.01818076944456    -0.03385878544487
    8    -0.00081086694257     0.00046895522648    -0.00022281826247    -0.01684748172904    -0.01936086937962
    9    -0.00048529943195    -0.00055784314304     0.00075354168680    -0.03064748146733    -0.04903872686719
   10    -0.00000000000000     0.00000000000000    -0.00000000000000    -0.00000000000000     0.00000000000003
   11     0.00002364438116    -0.00012998157726     0.00310644337599     0.00057963009404    -0.03645268320346
   12    -0.00005619076852     0.00110918951820    -0.00088764363619    -0.02854310624690    -0.00386681368281
   13    -0.00055199013104    -0.00008724924216     0.00003540365560     0.01040499119356     0.01115753934152
   14    -0.00000000000000    -0.00000000000000     0.00000000000000     0.00000000000000     0.00000000000000
   15    -0.00000000000000     0.00000000000000    -0.00000000000000    -0.00000000000000    -0.00000000000000
   16    -0.00013275364144    -0.00070890009377     0.00035263938305     0.01594835189253     0.00994503445034
   17    -0.00048097585694     0.00045643360454     0.00022481257134    -0.00641058074588     0.00384393915739
   18    -0.00000000000000    -0.00000000000000     0.00000000000000    -0.00000000000000    -0.00000000000000
   19    -0.00000000000000    -0.00000000000000    -0.00000000000000     0.00000000000001     0.00000000000000
   20    -0.00151802620043    -0.00007524143187    -0.00074572035846     0.01763277502488    -0.00379379967367
   21     0.00000907602182    -0.00004923131158    -0.00027977604883    -0.02067704511913    -0.00302842679392
   22    -0.00099278447147     0.00044541060521    -0.00045912538725    -0.00876249274734    -0.01695395867675
   23    -0.00199388345525    -0.00002291155287    -0.00228507622760     0.01463621986437    -0.01192149787489

                 6                   7                   8                   9                  10

    1     0.00124593990449    -0.00000000000000    -0.00384382420061    -0.00000000000000    -0.02249527123321
    2     0.03153373640562     0.00000000000000    -0.04138125173360     0.00000000000000     0.00450357117474
    3    -0.00000000000001    -0.00006604639213     0.00000000000001     0.01828906439242     0.00000000000001
    4     0.05370131279050    -0.00000000000000    -0.08234902236115     0.00000000000000     0.03369832676381
    5     0.02839962814036    -0.00000000000000    -0.01612857297594     0.00000000000001    -0.02883896744761
    6     0.00000000000000     0.00513977039015    -0.00000000000001    -0.02150211056675     0.00000000000001
    7     0.00106258692954     0.00000000000000     0.01874501457809    -0.00000000000001    -0.03429832402616
    8    -0.00644558510523    -0.00000000000000    -0.00465549334754    -0.00000000000000    -0.00338319679254
    9    -0.01586763958521     0.00000000000000     0.00613936059802    -0.00000000000001    -0.08783351761798
   10     0.00000000000000    -0.00458280411213     0.00000000000002    -0.01429428981935     0.00000000000007
   11    -0.00376244513747    -0.00000000000000    -0.01767397808323    -0.00000000000002    -0.07668837416267
   12    -0.01287934016733    -0.00000000000000     0.02834493376455     0.00000000000000     0.00254517749477
   13    -0.00202323155714    -0.00000000000000    -0.01164020113798     0.00000000000000     0.01060053982882
   14     0.00000000000000     0.00968841801840    -0.00000000000001    -0.00509677436285     0.00000000000001
   15     0.00000000000000    -0.00429463150117     0.00000000000000     0.00667698031589    -0.00000000000000
   16     0.00343806217628    -0.00000000000000    -0.01678304610715     0.00000000000000     0.00544335064841
   17     0.00197726616924    -0.00000000000000     0.01398078085846    -0.00000000000000     0.00352487283089
   18     0.00000000000000     0.02103182582525     0.00000000000000     0.02780468296484    -0.00000000000000
   19     0.00000000000001    -0.00985272105634    -0.00000000000001    -0.01244015149570     0.00000000000002
   20     0.02038596864117     0.00000000000000    -0.02027759995788     0.00000000000001     0.03995190120521
   21    -0.00788916104171    -0.00000000000000     0.02682476886154    -0.00000000000001    -0.02379747128995
   22     0.00673288423920     0.00000000000000     0.00903071600662    -0.00000000000001    -0.01020033934894
   23     0.02462515722722    -0.00000000000000    -0.02555741692337     0.00000000000000     0.04455674397518

                11                  12

    1    -0.00000000000002     0.00533745759968
    2     0.00000000000009    -0.06068007314042
    3    -0.07117638639769    -0.00000000000008
    4     0.00000000000005    -0.03881928516742
    5     0.00000000000002    -0.03859321170519
    6     0.08432889928740     0.00000000000009
    7    -0.00000000000005     0.06659477905749
    8    -0.00000000000005     0.03431962090060
    9    -0.00000000000012     0.07802169933405
   10     0.01955860761053     0.00000000000004
   11     0.00000000000003    -0.00621466994017
   12    -0.00000000000010     0.06591158755303
   13    -0.00000000000002     0.01146515410115
   14     0.02970434541853     0.00000000000004
   15    -0.03098546316693    -0.00000000000004
   16     0.00000000000003    -0.02468799338444
   17     0.00000000000002    -0.01010863658553
   18     0.00191481040895     0.00000000000000
   19    -0.01178235024344    -0.00000000000003
   20     0.00000000000005    -0.03329622258241
   21    -0.00000000000002     0.01399083162014
   22    -0.00000000000001     0.00634953300812
   23     0.00000000000001    -0.00803669911216



  ## CPHF Coefficients for R(2, 0) (Symmetry 0) ##
  Irrep: 1 Size: 23 x 12

                 1                   2                   3                   4                   5

    1     0.00000000000000     0.00000000000000     0.00000000000000    -0.00000000000000     0.00000000000000
    2     0.00000000000000     0.00000000000000     0.00000000000000    -0.00000000000001    -0.00000000000000
    3     0.00028117079094     0.00100103072699     0.00122037095090    -0.00772644685640    -0.01170212683519
    4    -0.00000000000000    -0.00000000000000    -0.00000000000000     0.00000000000000    -0.00000000000000
    5    -0.00000000000000     0.00000000000000    -0.00000000000000     0.00000000000000    -0.00000000000001
    6     0.00011497664052     0.00018376555017     0.00087647811343    -0.01514592308839     0.00804268625565
    7     0.00000000000000    -0.00000000000000     0.00000000000000    -0.00000000000001     0.00000000000001
    8     0.00000000000000     0.00000000000000     0.00000000000000     0.00000000000000     0.00000000000000
    9    -0.00000000000000     0.00000000000000     0.00000000000000     0.00000000000000    -0.00000000000000
   10     0.00188381131392    -0.00133857947522    -0.00610857036536     0.00006683892240     0.04461777272932
   11     0.00000000000000    -0.00000000000000    -0.00000000000001     0.00000000000000     0.00000000000004
   12    -0.00000000000000     0.00000000000000    -0.00000000000000     0.00000000000000    -0.00000000000000
   13     0.00000000000000     0.00000000000000     0.00000000000000     0.00000000000000    -0.00000000000000
   14    -0.00039488143787    -0.00051146937383    -0.00036768616461    -0.02057608398285     0.00810851674492
   15     0.00002997261036    -0.00122832423670     0.00026915038267    -0.01304048269201     0.00249276951836
   16     0.00000000000000    -0.00000000000000     0.00000000000000     0.00000000000000     0.00000000000000
   17     0.00000000000000     0.00000000000000     0.00000000000000     0.00000000000000    -0.00000000000000
   18     0.00137815188854     0.00046873478704    -0.00030921066677     0.00462947201120     0.00058155264487
   19    -0.00088218084078     0.00206027103092     0.00203495853067     0.00786523498829    -0.03719739375725
   20    -0.00000000000000    -0.00000000000000    -0.00000000000000    -0.00000000000000     0.00000000000001
   21    -0.00000000000000    -0.00000000000000    -0.00000000000000    -0.00000000000000    -0.00000000000000
   22     0.00000000000000     0.00000000000000    -0.00000000000000     0.00000000000000    -0.00000000000000
[...]
   21     0.04988858667370    -0.00000000000000     0.00000244106446     0.00000000000001     0.03798440428584
   22    -0.00000260817360    -0.00000000000000     0.05762054697548     0.00000000000000    -0.00000172446765
   23     0.02303199823154     0.00000000000000     0.00000123837065     0.00000000000001     0.02902462485764

                11                  12

    1    -0.00000000000000     0.00000426578284
    2    -0.00000000000065     0.41414957011993
    3    -0.00000634274108    -0.00000000000013
    4     0.00000000000003     0.00074909669501
    5     0.00000000000035    -0.21145860346516
    6    -0.12452040344827    -0.00000000000017
    7     0.00000000000033    -0.25095122304518
    8     0.00000000000000     0.00000275413511
    9     0.00000000000023    -0.16081449026013
   10    -0.00000472564902    -0.00000000000001
   11    -0.00000000000000    -0.00003226835608
   12    -0.00000000000006     0.03280871472301
   13     0.00000000000000     0.00000189038472
   14     0.09143524622861     0.00000000000015
   15     0.00000280501822     0.00000000000001
   16     0.00000000000003    -0.03702479014850
   17     0.00000000000001    -0.00000259729035
   18     0.00000197351129     0.00000000000000
   19     0.15687782901095     0.00000000000030
   20    -0.00000000000032     0.16939045197083
   21     0.00000000000000     0.00000908777522
   22     0.00000000000002     0.00611027989395
   23    -0.00000000000000     0.00000366065629



  ## CPHF Coefficients for B(1) (Symmetry 0) ##
  Irrep: 1 Size: 23 x 12

                 1                   2                   3                   4                   5

    1    -0.00000000000000    -0.00000000000000    -0.00000000000000    -0.00000000000001     0.00000000000000
    2    -0.00000000000000    -0.00000000000001    -0.00000000000000    -0.00000000000001     0.00000000000001
    3    -0.00677167481122    -0.01493057122647     0.00001111856368    -0.04337395194132     0.01746606552755
    4     0.00000000000000     0.00000000000000     0.00000000000000     0.00000000000001    -0.00000000000000
    5    -0.00000000000000    -0.00000000000000     0.00000000000000    -0.00000000000001     0.00000000000000
    6     0.00000006387332    -0.00001216452504    -0.01528137306681     0.00000064072994     0.00000271470383
    7     0.00000000000000     0.00000000000000    -0.00000000000001     0.00000000000000    -0.00000000000000
    8    -0.00000000000000     0.00000000000000     0.00000000000000    -0.00000000000000    -0.00000000000000
    9     0.00000000000000    -0.00000000000000     0.00000000000000     0.00000000000000     0.00000000000001
   10    -0.01514284734900     0.01365591589037    -0.00001011001537    -0.02437899121913    -0.11985308609966
   11    -0.00000000000002     0.00000000000001     0.00000000000000    -0.00000000000002    -0.00000000000012
   12     0.00000000000000    -0.00000000000000     0.00000000000000    -0.00000000000000     0.00000000000000
   13     0.00000000000000     0.00000000000000     0.00000000000000     0.00000000000000    -0.00000000000000
   14     0.00000018341536    -0.00002715290703    -0.03416362682680     0.00000048017625     0.00000410838453
   15    -0.01218739209922    -0.02978220595834     0.00002207231253    -0.06469595153358     0.01988198014754
   16    -0.00000000000000    -0.00000000000000     0.00000000000001    -0.00000000000001     0.00000000000000
   17     0.00000000000000     0.00000000000000    -0.00000000000000     0.00000000000001     0.00000000000001
   18    -0.04664678939532     0.00448352860625    -0.00000339328915    -0.12169467145128    -0.13166486174695
   19    -0.00000045950377    -0.00000178074984    -0.00241514002950    -0.00000167524487    -0.00000087613314
   20     0.00000000000000     0.00000000000000     0.00000000000000     0.00000000000000     0.00000000000000
   21     0.00000000000000    -0.00000000000000     0.00000000000000     0.00000000000000     0.00000000000000
   22     0.00000000000000     0.00000000000000    -0.00000000000000     0.00000000000000     0.00000000000000
   23     0.00000000000000     0.00000000000000    -0.00000000000000     0.00000000000000     0.00000000000000

                 6                   7                   8                   9                  10

    1     0.00000000000000    -0.23527905187821     0.00000000000000     0.00001019368868     0.00000000000000
    2     0.00000000000002    -0.00002955782165     0.00000000000001     0.82329144992521    -0.00000000000006
    3     0.00000029685168     0.00000000000012    -0.00104889613363    -0.00000000000025    -0.00001612807908
    4    -0.00000000000001     0.52566486906809    -0.00000000000000    -0.00049585161157    -0.00000000000002
    5    -0.00000000000002     0.00173164344343     0.00000000000000     0.15472878820457    -0.00000000000006
    6     0.09212403851754     0.00000000000008    -0.00000162437629    -0.00000000000046     0.12464027690812
    7     0.00000000000006    -0.00000016121738     0.00000000000001     0.42009022898591    -0.00000000000000
    8    -0.00000000000000    -0.00441827477097    -0.00000000000000     0.00001518572064    -0.00000000000000
    9    -0.00000000000001    -0.00000955658269    -0.00000000000000    -0.08836931857263     0.00000000000001
   10     0.00000054138592    -0.00000000000009    -0.00782697174545    -0.00000000000001    -0.00000129982121
   11    -0.00000000000000     0.09234329469385    -0.00000000000001    -0.00000653953971     0.00000000000000
   12    -0.00000000000001     0.00000318496240    -0.00000000000000    -0.06225311028322     0.00000000000001
   13    -0.00000000000000    -0.10372266507221     0.00000000000000     0.00000011494558    -0.00000000000000
   14     0.09962169645247    -0.00000000000000    -0.00000113109200    -0.00000000000003    -0.01857074499151
   15     0.00000236413895    -0.00000000000000    -0.03487546052352     0.00000000000001    -0.00000313018537
   16    -0.00000000000002     0.00000066755331    -0.00000000000001    -0.06989511620946     0.00000000000002
   17     0.00000000000000     0.02790909085048     0.00000000000000    -0.00000478742306    -0.00000000000000
   18     0.00000528421905    -0.00000000000000    -0.06770207982308     0.00000000000000     0.00000628795685
   19     0.01247812187005     0.00000000000000    -0.00000104859578     0.00000000000001    -0.10149033549383
   20    -0.00000000000001     0.00000262855656     0.00000000000000     0.04681420573379     0.00000000000004
   21    -0.00000000000000    -0.06294296171745     0.00000000000000     0.00000453261087    -0.00000000000000
   22     0.00000000000001     0.00000198265371     0.00000000000000    -0.02733656998979    -0.00000000000001
   23     0.00000000000000    -0.07679642331106     0.00000000000000    -0.00000199073515     0.00000000000000

                11                  12

    1     0.55912545647076     0.00000000000092
    2    -0.00000511878788     0.00000000000018
    3    -0.00000000000090     0.51446483449320
    4    -0.37305230521647    -0.00000000000061
    5    -0.00123540558873     0.00000000000008
    6    -0.00000000000007     0.00000026047591
    7    -0.00001753734594    -0.00000000000003
    8     0.25384453130749     0.00000000000037
    9    -0.00000950181334    -0.00000000000001
   10    -0.00000000000029     0.11281878071637
   11     0.11970709350452     0.00000000000029
   12     0.00000508000622     0.00000000000000
   13    -0.15097380901070    -0.00000000000022
   14     0.00000000000001    -0.00000108503750
   15    -0.00000000000008     0.04717106766390
   16    -0.00000119358802     0.00000000000001
   17    -0.09470985796330    -0.00000000000014
   18     0.00000000000020    -0.14065119507674
   19     0.00000000000000    -0.00000344329736
   20    -0.00000623017303     0.00000000000000
   21     0.04818816439028     0.00000000000008
   22     0.00000543893877     0.00000000000000
   23    -0.14921239751753    -0.00000000000022



  ## CPHF Coefficients for B(2) (Symmetry 0) ##
  Irrep: 1 Size: 23 x 12

                 1                   2                   3                   4                   5

    1    -0.00000000000000    -0.00000000000000    -0.00000000000000    -0.00000000000000     0.00000000000001
    2    -0.00000000000000    -0.00000000000001    -0.00000000000001    -0.00000000000001     0.00000000000002
    3    -0.00000000179704    -0.00002243790308    -0.02888336016115     0.00000056998533     0.00000362250708
    4    -0.00000000000000     0.00000000000000     0.00000000000000     0.00000000000000    -0.00000000000001
    5     0.00000000000000     0.00000000000001    -0.00000000000000     0.00000000000001    -0.00000000000002
    6    -0.00005535431762    -0.02997853327677     0.00002329672163    -0.03484608830799     0.10347039909800
    7    -0.00000000000000    -0.00000000000002     0.00000000000000    -0.00000000000003     0.00000000000008
    8    -0.00000000000000     0.00000000000000     0.00000000000000     0.00000000000000    -0.00000000000000
    9     0.00000000000000     0.00000000000000    -0.00000000000000     0.00000000000001    -0.00000000000001
   10    -0.00000000686956     0.00002095839565     0.02685142667216    -0.00000043631207    -0.00000358429400
   11     0.00000000000000     0.00000000000000     0.00000000000003     0.00000000000000    -0.00000000000000
   12    -0.00000000000000     0.00000000000000    -0.00000000000000     0.00000000000001    -0.00000000000001
   13     0.00000000000000     0.00000000000000     0.00000000000000     0.00000000000000    -0.00000000000000
   14     0.00000601824211    -0.06674403738209     0.00005194049882    -0.07210985146631     0.15075085181292
   15    -0.00000000212508    -0.00004539388554    -0.05818875129542     0.00000045092924     0.00000440556829
   16    -0.00000000000000     0.00000000000001    -0.00000000000001     0.00000000000001    -0.00000000000003
   17    -0.00000000000000    -0.00000000000000     0.00000000000000    -0.00000000000000     0.00000000000001
   18    -0.00000001268481     0.00000662687858     0.00867038513417    -0.00000036391809    -0.00000015593209
   19     0.00006176206382    -0.00459660839075     0.00000384634699    -0.02453995757892     0.03746334611034
   20    -0.00000000000000     0.00000000000001     0.00000000000000     0.00000000000002    -0.00000000000003
   21    -0.00000000000000     0.00000000000000    -0.00000000000000     0.00000000000000    -0.00000000000000
   22     0.00000000000000    -0.00000000000001     0.00000000000000    -0.00000000000001     0.00000000000002
   23     0.00000000000000    -0.00000000000000     0.00000000000000    -0.00000000000000     0.00000000000000

                 6                   7                   8                   9                  10

    1     0.00000000000001     0.00000333853055     0.00000000000001     1.22784523659243    -0.00000000000016
    2     0.00000000000004    -0.13565277675029     0.00000000000000     0.00002886481835    -0.00000000000002
    3     0.11929559338959    -0.00000000000008    -0.00000093660886    -0.00000000000027    -0.05995916365042
    4    -0.00000000000002    -0.00110506361712    -0.00000000000001    -0.45185394075146     0.00000000000007
    5     0.00000000000002     0.33604236355862    -0.00000000000000    -0.00149244842899    -0.00000000000000
    6    -0.00000260662525     0.00000000000053    -0.00158828865591    -0.00000000000010     0.00000000484494
    7    -0.00000000000002    -0.59753170576571    -0.00000000000001    -0.00000099006877     0.00000000000000
    8    -0.00000000000001    -0.00000126991091     0.00000000000001     0.45067971594663    -0.00000000000005
    9     0.00000000000001     0.05136316468892     0.00000000000000     0.00000747240358    -0.00000000000000
   10    -0.16247462785841     0.00000000000001     0.00000075075757     0.00000000000005     0.05561876251488
   11    -0.00000000000016     0.00000351818543    -0.00000000000000    -0.05173328139190     0.00000000000006
   12     0.00000000000000     0.01747564668586     0.00000000000000    -0.00000171469417    -0.00000000000000
   13    -0.00000000000001    -0.00000031155318     0.00000000000000     0.10927946574039    -0.00000000000001
   14    -0.00000436941935     0.00000000000004    -0.02032612286835     0.00000000000001     0.00000012481116
   15     0.15135811118867    -0.00000000000002    -0.00000072109675    -0.00000000000001    -0.04687339428830
   16     0.00000000000002     0.11545431545512     0.00000000000000    -0.00000114415508    -0.00000000000001
   17    -0.00000000000000     0.00000003897442    -0.00000000000000    -0.16253108068911     0.00000000000002
   18    -0.00985993492097     0.00000000000000     0.00000022406795    -0.00000000000000    -0.02166991575209
   19    -0.00000199346097    -0.00000000000003    -0.02008764740547    -0.00000000000000    -0.00000027989594
   20    -0.00000000000000    -0.08569211351731     0.00000000000001    -0.00000582695165     0.00000000000000
   21     0.00000000000000    -0.00000383766063     0.00000000000000     0.11559087040323    -0.00000000000001
   22    -0.00000000000000     0.03075150083627    -0.00000000000000    -0.00000067666489     0.00000000000000
   23    -0.00000000000000     0.00000033775967     0.00000000000000    -0.00216288357225     0.00000000000000

                11                  12

    1    -0.00002297229339     0.00000000000000
    2    -0.17574013515365    -0.00000000000029
    3     0.00000000000023    -0.00000474686259
    4     0.00246393214452     0.00000000000002
    5    -0.74142061232009    -0.00000000000105
    6    -0.00000000000030    -0.08548521086993
    7     0.38433374985225     0.00000000000052
    8    -0.00000721966628     0.00000000000000
    9    -0.19241240480784    -0.00000000000028
   10    -0.00000000000002     0.00000119166271
   11    -0.00002108062956    -0.00000000000000
   12    -0.08195534791459    -0.00000000000012
   13    -0.00000260911401     0.00000000000000
   14    -0.00000000000003    -0.00274619858839
   15     0.00000000000002    -0.00000188150783
   16    -0.08320202567837    -0.00000000000012
   17     0.00000314819287     0.00000000000000
   18    -0.00000000000000    -0.00000038013791
   19    -0.00000000000008     0.06040910104472
   20     0.01852203335609     0.00000000000000
   21    -0.00000243493711     0.00000000000000
   22    -0.04846958453747    -0.00000000000006
   23     0.00000084525171    -0.00000000000000



  Irrep: 1 Size: 7 x 3

                 1                   2                   3

    1     0.00000000000000     0.00000000000000     1.61193639000000
    2     0.00000000000000    -1.38138904000000    -0.70621430400000
    3     0.00000000000000     1.38139057000000    -0.70625141200000
    4    -1.74897659000000    -2.37947253000000    -1.10195390000000
    5     1.74897659000000    -2.37947253000000    -1.10195390000000
    6     1.74897659000000     2.37946343000000    -1.10201782000000
    7    -1.74897659000000     2.37946343000000    -1.10201782000000



  ## AAT Electronic Component (Symmetry 0) ##
  Irrep: 1 Size: 21 x 3

                 1                   2                   3

    1    -0.00000000000001     0.52686605983854     0.00000717006973
    2    -1.42738607249341     0.00000000000004     0.00000000000001
    3    -0.00000230841613     0.00000000000004     0.00000000000000
    4    -0.00000000000002    -1.58746620756558     1.64040256561441
    5     0.82951844101145    -0.00000000000002     0.00000000000006
    6    -2.12481012681786     0.00000000000005    -0.00000000000000
    7     0.00000000000002    -1.58749572721893    -1.64040543919947
    8     0.82958176008027    -0.00000000000002     0.00000000000005
    9     2.12477917940068    -0.00000000000002    -0.00000000000001
   10    -0.00153485718205     0.12089683505379    -0.25538868847442
   11     0.00208786380635     0.06283609116934     0.19411026227931
   12     0.08477542289878    -0.16687765285999     0.05061945050307
   13     0.00153485718207     0.12089683505380    -0.25538868847445
   14     0.00208786380638    -0.06283609116930    -0.19411026227944
   15     0.08477542289876     0.16687765285998    -0.05061945050309
   16    -0.00152975909027     0.12090252067706     0.25538793322075
   17     0.00208331739773     0.06283325395249    -0.19411533826121
   18    -0.08477105143388     0.16688442960423     0.05062795106059
   19     0.00152975909024     0.12090252067707     0.25538793322073
   20     0.00208331739768    -0.06283325395250     0.19411533826115
   21    -0.08477105143391    -0.16688442960425    -0.05062795106058



  ## AAT Nuclear Component (Symmetry 0) ##
  Irrep: 1 Size: 21 x 3

                 1                   2                   3

    1     0.00000000000000     3.22387278000000     0.00000000000000
    2    -3.22387278000000     0.00000000000000     0.00000000000000
    3     0.00000000000000     0.00000000000000     0.00000000000000
    4     0.00000000000000    -1.05932145600000     2.07208356000000
    5     1.05932145600000     0.00000000000000     0.00000000000000
    6    -2.07208356000000     0.00000000000000     0.00000000000000
    7     0.00000000000000    -1.05937711800000    -2.07208585500000
    8     1.05937711800000     0.00000000000000     0.00000000000000
    9     2.07208585500000     0.00000000000000     0.00000000000000
   10     0.00000000000000    -0.27548847500000     0.59486813250000
   11     0.27548847500000     0.00000000000000    -0.43724414750000
   12    -0.59486813250000     0.43724414750000     0.00000000000000
   13     0.00000000000000    -0.27548847500000     0.59486813250000
   14     0.27548847500000     0.00000000000000     0.43724414750000
   15    -0.59486813250000    -0.43724414750000     0.00000000000000
   16     0.00000000000000    -0.27550445500000    -0.59486585750000
   17     0.27550445500000     0.00000000000000     0.43724414750000
   18     0.59486585750000    -0.43724414750000     0.00000000000000
   19     0.00000000000000    -0.27550445500000    -0.59486585750000
   20     0.27550445500000     0.00000000000000    -0.43724414750000
   21     0.59486585750000     0.43724414750000     0.00000000000000



  ## AAT Total (Symmetry 0) ##
  Irrep: 1 Size: 21 x 3

                 1                   2                   3

    1    -0.00000000000001     3.75073883983854     0.00000717006973
    2    -4.65125885249341     0.00000000000004     0.00000000000001
    3    -0.00000230841613     0.00000000000004     0.00000000000000
    4    -0.00000000000002    -2.64678766356558     3.71248612561441
    5     1.88883989701145    -0.00000000000002     0.00000000000006
    6    -4.19689368681786     0.00000000000005    -0.00000000000000
    7     0.00000000000002    -2.64687284521893    -3.71249129419947
    8     1.88895887808027    -0.00000000000002     0.00000000000005
    9     4.19686503440068    -0.00000000000002    -0.00000000000001
   10    -0.00153485718205    -0.15459163994621     0.33947944402558
   11     0.27757633880635     0.06283609116934    -0.24313388522069
   12    -0.51009270960122     0.27036649464001     0.05061945050307
   13     0.00153485718207    -0.15459163994620     0.33947944402555
   14     0.27757633880638    -0.06283609116930     0.24313388522056
   15    -0.51009270960124    -0.27036649464002    -0.05061945050309
   16    -0.00152975909027    -0.15460193432294    -0.33947792427925
   17     0.27758777239773     0.06283325395249     0.24312880923879
   18     0.51009480606612    -0.27035971789577     0.05062795106059
   19     0.00152975909024    -0.15460193432293    -0.33947792427927
   20     0.27758777239768    -0.06283325395250    -0.24312880923885
   21     0.51009480606609     0.27035971789575    -0.05062795106058




    Psi4 stopped on: Saturday, 31 October 2020 08:15PM
    Psi4 wall time for execution: 0:00:18.10

*** Psi4 exiting successfully. Buy a developer a beer!
